<LesHouchesEvents version="3.0">
<!--
file generated with POWHEG-BOX-V2
Input file powheg.input contained:
vdecaymode  1     ! Z decay products (default 2): 1 for electronic

numevts 2000	! number of events to be generated
ih1   1           ! hadron 1 (1 for protons, -1 for antiprotons)
ih2   1           ! hadron 2 (1 for protons, -1 for antiprotons)
ebeam1 2510d0      ! energy of beam 1
ebeam2 2510d0      ! energy of beam 2


bornktmin 0.25     !  (default 0d0) generation cut. Minimum kt in underlying Born
##bornsuppfact 10d0 ! (default 0d0) mass param for Born suppression factor. If < 0 suppfact = 1


! To be set only if using LHA pdfs
lhans1 27100 ! pdf set for hadron 1 (LHA numbering)
lhans2 99208082 ! pdf set for hadron 2 (LHA numbering)	

! for not equal pdf set QCDLambda5
QCDLambda5 0.22616191135470262


! Parameters to allow or not the use of stored data
use-old-grid    1 ! if 1 use old grid if file pwggrids.dat is present (<> 1 regenerate)
use-old-ubound  1 ! if 1 use norm of upper bounding function stored in pwgubound.dat, if present; <>

ncall1 10000    ! number of calls for initializing the integration grid
itmx1    2      ! number of iterations for initializing the integration grid
ncall2 10000     ! number of calls for computing the integral and finding upper bounding envelope
itmx2    2      ! number of iterations for computing the integral and finding upper bouding envelope
foldcsi   5     ! number of folds on csi integration
foldy    5     ! number of folds on  y  integration
foldphi   5     ! number of folds on phi integration
nubound 200000  ! number of calls to set up the upper bounding norms for radiation

! OPTIONAL PARAMETERS

min_Z_mass 1.0
max_Z_mass 10
runningscale 1
xminpdf 0.00001

alphas_from_pdf 1 # TODO toggle
pdf_cutoff_fact 0.01d0
#bornonly 1
#LOevents 1

storemintupb 1

!! parallel
iseed 10103        ! initialize random number sequence
manyseeds 1
parallelstage 4
xgriditeration 2
maxseeds 2000
clobberlhe 1

!! shower/analysis param
NoPythia 0
NoRivet 0
QEDShower 0
QCDShower 1
hadronization 1
mpi 0
pythiaHepMC 1
HepMCEventOutput 0
HepMCEventInput 0
rivetAnalysis "ALICE_2020_I1797621"
rivetAnalysis1 "ALICE_2020_I1797621:PHOTON_Z=1"
#rivetAnalysis2 "POWHEG_2023_DILEPTONS"
rivetWeight 0

rwl_file '-'
End of powheg.input content
PDF package: lha
 Random number generator initialized with:            3             0             0
-->
<header>
<initrwgt>
<weightgroup name='nominal' combine='None' >
<weight id='MUR1.0_MUF1.0_PDF99208082' >default</weight>
</weightgroup>
<weightgroup name='scale_variations' combine='None' >
<weight id='MUR2.0_MUF2.0_PDF99208082' > renscfact=2d0 facscfact=2d0 </weight>
<weight id='MUR0.5_MUF0.5_PDF99208082' > renscfact=0.5d0 facscfact=0.5d0 </weight>
<weight id='MUR1.0_MUF2.0_PDF99208082' > renscfact=1d0 facscfact=2d0 </weight>
<weight id='MUR1.0_MUF0.5_PDF99208082' > renscfact=1d0 facscfact=0.5d0 </weight>
<weight id='MUR2.0_MUF1.0_PDF99208082' > renscfact=2d0 facscfact=1d0 </weight>
<weight id='MUR0.5_MUF1.0_PDF99208082' > renscfact=0.5d0 facscfact=1d0 </weight>
</weightgroup>
<weightgroup name='pdf_variations' combine='None' >
<weight id='MUR1.0_MUF1.0_PDF99208083' > lhapdf1=27100 lhapdf2=99208083</weight>
<weight id='MUR1.0_MUF1.0_PDF99208084' > lhapdf1=27100 lhapdf2=99208084</weight>
<weight id='MUR1.0_MUF1.0_PDF99208085' > lhapdf1=27100 lhapdf2=99208085</weight>
<weight id='MUR1.0_MUF1.0_PDF99208086' > lhapdf1=27100 lhapdf2=99208086</weight>
<weight id='MUR1.0_MUF1.0_PDF99208087' > lhapdf1=27100 lhapdf2=99208087</weight>
<weight id='MUR1.0_MUF1.0_PDF99208088' > lhapdf1=27100 lhapdf2=99208088</weight>
<weight id='MUR1.0_MUF1.0_PDF99208089' > lhapdf1=27100 lhapdf2=99208089</weight>
<weight id='MUR1.0_MUF1.0_PDF99208090' > lhapdf1=27100 lhapdf2=99208090</weight>
<weight id='MUR1.0_MUF1.0_PDF99208091' > lhapdf1=27100 lhapdf2=99208091</weight>
<weight id='MUR1.0_MUF1.0_PDF99208092' > lhapdf1=27100 lhapdf2=99208092</weight>
<weight id='MUR1.0_MUF1.0_PDF99208093' > lhapdf1=27100 lhapdf2=99208093</weight>
<weight id='MUR1.0_MUF1.0_PDF99208094' > lhapdf1=27100 lhapdf2=99208094</weight>
<weight id='MUR1.0_MUF1.0_PDF99208095' > lhapdf1=27100 lhapdf2=99208095</weight>
<weight id='MUR1.0_MUF1.0_PDF99208096' > lhapdf1=27100 lhapdf2=99208096</weight>
<weight id='MUR1.0_MUF1.0_PDF99208097' > lhapdf1=27100 lhapdf2=99208097</weight>
<weight id='MUR1.0_MUF1.0_PDF99208098' > lhapdf1=27100 lhapdf2=99208098</weight>
<weight id='MUR1.0_MUF1.0_PDF99208099' > lhapdf1=27100 lhapdf2=99208099</weight>
<weight id='MUR1.0_MUF1.0_PDF99208100' > lhapdf1=27100 lhapdf2=99208100</weight>
<weight id='MUR1.0_MUF1.0_PDF99208101' > lhapdf1=27100 lhapdf2=99208101</weight>
<weight id='MUR1.0_MUF1.0_PDF99208102' > lhapdf1=27100 lhapdf2=99208102</weight>
<weight id='MUR1.0_MUF1.0_PDF99208103' > lhapdf1=27100 lhapdf2=99208103</weight>
<weight id='MUR1.0_MUF1.0_PDF99208104' > lhapdf1=27100 lhapdf2=99208104</weight>
<weight id='MUR1.0_MUF1.0_PDF99208105' > lhapdf1=27100 lhapdf2=99208105</weight>
<weight id='MUR1.0_MUF1.0_PDF99208106' > lhapdf1=27100 lhapdf2=99208106</weight>
<weight id='MUR1.0_MUF1.0_PDF99208107' > lhapdf1=27100 lhapdf2=99208107</weight>
<weight id='MUR1.0_MUF1.0_PDF99208108' > lhapdf1=27100 lhapdf2=99208108</weight>
<weight id='MUR1.0_MUF1.0_PDF99208109' > lhapdf1=27100 lhapdf2=99208109</weight>
<weight id='MUR1.0_MUF1.0_PDF99208110' > lhapdf1=27100 lhapdf2=99208110</weight>
<weight id='MUR1.0_MUF1.0_PDF99208111' > lhapdf1=27100 lhapdf2=99208111</weight>
<weight id='MUR1.0_MUF1.0_PDF99208112' > lhapdf1=27100 lhapdf2=99208112</weight>
<weight id='MUR1.0_MUF1.0_PDF99208113' > lhapdf1=27100 lhapdf2=99208113</weight>
<weight id='MUR1.0_MUF1.0_PDF99208114' > lhapdf1=27100 lhapdf2=99208114</weight>
<weight id='MUR1.0_MUF1.0_PDF99208115' > lhapdf1=27100 lhapdf2=99208115</weight>
<weight id='MUR1.0_MUF1.0_PDF99208116' > lhapdf1=27100 lhapdf2=99208116</weight>
<weight id='MUR1.0_MUF1.0_PDF99208117' > lhapdf1=27100 lhapdf2=99208117</weight>
<weight id='MUR1.0_MUF1.0_PDF99208118' > lhapdf1=27100 lhapdf2=99208118</weight>
<weight id='MUR1.0_MUF1.0_PDF99208119' > lhapdf1=27100 lhapdf2=99208119</weight>
<weight id='MUR1.0_MUF1.0_PDF99208120' > lhapdf1=27100 lhapdf2=99208120</weight>
</weightgroup>
</initrwgt>
</header>
<init>
     2212     2212  2.51000E+03  2.51000E+03     -1     -1     -1     -1     -4      1
  7.21720E+03  8.87364E+02  1.00000E+00  10001
</init>
<event>
      7  10001  1.11453E+07  2.42132E+00 -1.00000E+00  3.21830E-01
      -2    -1     0     0     0   502  0.000000000E+00  0.000000000E+00  1.596673772E-01  1.596673772E-01  0.000000000E+00  0.00000E+00  9.000E+00
      21    -1     0     0   502   501  0.000000000E+00  0.000000000E+00 -1.979087573E+01  1.979087573E+01  0.000000000E+00  0.00000E+00  9.000E+00
      23     2     1     2     0     0 -2.715131942E-01 -6.004246500E-01 -3.272239123E+00  3.504354871E+00  1.067110589E+00  0.00000E+00  9.000E+00
      11     1     3     3     0     0 -9.921110112E-02  2.574546034E-01 -3.072708859E-01  4.129665530E-01  5.110000000E-04  0.00000E+00  9.000E+00
     -11     1     3     3     0     0 -1.723020930E-01 -8.578792534E-01 -2.964968237E+00  3.091388318E+00  5.110000000E-04  0.00000E+00  9.000E+00
      -2     1     1     2     0   511 -3.204270527E-01  4.049849988E-01 -1.767181124E+00  1.841090837E+00  0.000000000E+00  0.00000E+00  9.000E+00
      21     1     1     2   511   501  5.919402469E-01  1.954396512E-01 -1.459178811E+01  1.460509740E+01  1.685873940E-07  0.00000E+00  9.000E+00
#rwgt            2         101   3933017.7360749426                3         267           0
<weights>
0.11148E+08
0.11098E+08
0.10961E+08
0.13534E+08
0.87849E+07
0.91411E+07
0.13910E+08
0.11218E+08
0.11076E+08
0.10925E+08
0.10971E+08
0.10997E+08
0.11103E+08
0.10964E+08
0.10974E+08
0.11205E+08
0.11144E+08
0.11317E+08
0.11325E+08
0.11321E+08
0.11305E+08
0.11320E+08
0.11363E+08
0.11194E+08
0.11332E+08
0.11284E+08
0.11069E+08
0.11289E+08
0.11223E+08
0.11280E+08
0.11332E+08
0.11131E+08
0.11219E+08
0.11152E+08
0.11150E+08
0.11264E+08
0.11044E+08
0.10938E+08
0.11302E+08
0.11118E+08
0.11175E+08
0.11155E+08
0.11140E+08
0.11353E+08
0.10951E+08
</weights>
</event>
<event>
      6  10001 -1.11453E+07  8.94427E-01 -1.00000E+00  1.69167E-01
      -4    -1     0     0     0   502  0.000000000E+00  0.000000000E+00  2.180197148E+01  2.180197148E+01  0.000000000E+00  0.00000E+00  9.000E+00
      21    -1     0     0   502   501  0.000000000E+00  0.000000000E+00 -2.445233408E-02  2.445233408E-02  0.000000000E+00  0.00000E+00  9.000E+00
      23     2     1     2     0     0 -2.402825022E-01  2.760102839E-01  1.712928142E+01  1.716380317E+01  1.024665689E+00  0.00000E+00  9.000E+00
      11     1     3     3     0     0 -3.673418531E-01 -1.209580892E-01  2.605924721E+00  2.634466703E+00  5.110000000E-04  0.00000E+00  9.000E+00
     -11     1     3     3     0     0  1.270593509E-01  3.969683731E-01  1.452335670E+01  1.452933647E+01  5.110000000E-04  0.00000E+00  9.000E+00
      -4     1     1     2     0   501  2.402825022E-01 -2.760102839E-01  4.648237717E+00  4.662620640E+00  0.000000000E+00  0.00000E+00  9.000E+00
#rwgt            1           3  -6659132.7051872173                3         575           0
<weights>
-.11145E+08
-.13365E+08
-.88392E+07
-.16241E+08
-.70823E+07
-.91720E+07
-.13910E+08
-.11173E+08
-.11119E+08
-.10826E+08
-.10817E+08
-.10963E+08
-.11008E+08
-.10844E+08
-.10827E+08
-.11226E+08
-.11209E+08
-.11458E+08
-.11500E+08
-.11488E+08
-.11435E+08
-.11497E+08
-.11517E+08
-.11407E+08
-.11328E+08
-.11284E+08
-.11348E+08
-.11430E+08
-.11369E+08
-.11474E+08
-.11509E+08
-.11182E+08
-.11217E+08
-.11138E+08
-.11176E+08
-.11209E+08
-.11101E+08
-.11127E+08
-.11089E+08
-.11165E+08
-.11129E+08
-.11185E+08
-.11104E+08
-.11502E+08
-.10817E+08
</weights>
</event>
<event>
      6  10001 -1.11453E+07  8.94427E-01 -1.00000E+00  3.26146E-01
      21    -1     0     0   502   501  0.000000000E+00  0.000000000E+00  2.447463243E-02  2.447463243E-02  0.000000000E+00  0.00000E+00  9.000E+00
       2    -1     0     0   501     0  0.000000000E+00  0.000000000E+00 -1.049001198E+02  1.049001198E+02  0.000000000E+00  0.00000E+00  9.000E+00
      23     2     1     2     0     0  8.595551725E-01 -2.074032599E-01 -2.581892775E+01  2.586293229E+01  1.221632306E+00  0.00000E+00  9.000E+00
      11     1     3     3     0     0  9.781420252E-01 -5.473590725E-01 -1.719674895E+01  1.723323935E+01  5.110000000E-04  0.00000E+00  9.000E+00
     -11     1     3     3     0     0 -1.185868527E-01  3.399558125E-01 -8.622178799E+00  8.629692943E+00  5.110000000E-04  0.00000E+00  9.000E+00
       2     1     1     2   502     0 -8.595551725E-01  2.074032599E-01 -7.905671745E+01  7.906166217E+01  0.000000000E+00  0.00000E+00  9.000E+00
#rwgt            1          17  -13637424.487247350                3        3629           0
<weights>
-.11145E+08
-.12638E+08
-.95140E+07
-.15360E+08
-.76232E+07
-.91702E+07
-.13910E+08
-.11150E+08
-.11140E+08
-.11153E+08
-.11167E+08
-.11156E+08
-.11124E+08
-.11168E+08
-.11168E+08
-.11194E+08
-.11037E+08
-.11096E+08
-.11140E+08
-.11144E+08
-.11093E+08
-.11116E+08
-.11116E+08
-.11228E+08
-.11021E+08
-.11067E+08
-.11178E+08
-.11194E+08
-.10999E+08
-.11126E+08
-.11112E+08
-.11120E+08
-.11160E+08
-.11104E+08
-.11193E+08
-.11136E+08
-.11149E+08
-.11130E+08
-.11168E+08
-.11105E+08
-.11176E+08
-.11191E+08
-.11096E+08
-.11122E+08
-.11163E+08
</weights>
</event>
<event>
      7  10001  1.11453E+07  8.94427E-01 -1.00000E+00  6.07649E-01
      -3    -1     0     0     0   501  0.000000000E+00  0.000000000E+00  1.704124678E+00  1.704124678E+00  0.000000000E+00  0.00000E+00  9.000E+00
      -2    -1     0     0     0   502  0.000000000E+00  0.000000000E+00 -6.848998171E+00  6.848998171E+00  0.000000000E+00  0.00000E+00  9.000E+00
      23     2     1     2     0     0 -2.786748229E-01 -1.296534146E-01  1.509016530E+00  1.880708209E+00  1.079566031E+00  0.00000E+00  9.000E+00
      11     1     3     3     0     0 -5.655505631E-01  1.528942119E-01  1.302478900E+00  1.428172128E+00  5.110000000E-04  0.00000E+00  9.000E+00
     -11     1     3     3     0     0  2.868757402E-01 -2.825476265E-01  2.065376299E-01  4.525360817E-01  5.110000000E-04  0.00000E+00  9.000E+00
      -2     1     1     2     0   501  2.931729151E-01  1.425213336E-01 -6.641310273E+00  6.649305590E+00  0.000000000E+00  0.00000E+00  9.000E+00
      -3     1     1     2     0   502 -1.449809229E-02 -1.286791905E-02 -1.257975025E-02  2.310904881E-02  0.000000000E+00  0.00000E+00  9.000E+00
#rwgt            2          67   2073.9116981888947                3        5984           0
<weights>
0.11145E+08
0.11429E+08
0.10645E+08
0.13891E+08
0.85291E+07
0.91702E+07
0.13910E+08
0.11154E+08
0.11132E+08
0.10869E+08
0.10877E+08
0.10989E+08
0.11016E+08
0.10891E+08
0.10885E+08
0.11160E+08
0.11264E+08
0.11419E+08
0.11397E+08
0.11384E+08
0.11406E+08
0.11424E+08
0.11455E+08
0.11307E+08
0.11324E+08
0.11372E+08
0.11039E+08
0.11407E+08
0.11235E+08
0.11397E+08
0.11427E+08
0.11127E+08
0.11249E+08
0.11171E+08
0.11138E+08
0.11077E+08
0.11231E+08
0.11030E+08
0.11171E+08
0.11145E+08
0.11142E+08
0.11211E+08
0.11076E+08
0.11437E+08
0.10874E+08
</weights>
</event>
<event>
      7  10001  1.11453E+07  2.21034E+00 -1.00000E+00  3.36361E-01
       4    -1     0     0   501     0  0.000000000E+00  0.000000000E+00  2.013399542E-01  2.013399542E-01  0.000000000E+00  0.00000E+00  9.000E+00
      -4    -1     0     0     0   502  0.000000000E+00  0.000000000E+00 -1.404116988E+01  1.404116988E+01  0.000000000E+00  0.00000E+00  9.000E+00
      23     2     1     2     0     0  1.200967406E-01  4.575968516E-01 -7.429071110E+00  7.542845871E+00  1.216391449E+00  0.00000E+00  9.000E+00
      11     1     3     3     0     0  5.924882673E-01 -2.895674937E-02 -2.627987487E+00  2.694104551E+00  5.110000000E-04  0.00000E+00  9.000E+00
     -11     1     3     3     0     0 -4.723915267E-01  4.865536010E-01 -4.801083624E+00  4.848741320E+00  5.110000000E-04  0.00000E+00  9.000E+00
       4     1     1     2   501     0  5.134749515E-01 -3.906712236E-01 -5.734073446E+00  5.770258123E+00  0.000000000E+00  0.00000E+00  9.000E+00
      -4     1     1     2     0   502 -6.335716920E-01 -6.692562803E-02 -6.766853743E-01  9.294058449E-01  0.000000000E+00  0.00000E+00  9.000E+00
#rwgt            1          27   212497.73148983347                3        7641           0
<weights>
0.11145E+08
0.12718E+08
0.95101E+07
0.13233E+08
0.88430E+07
0.10562E+08
0.11773E+08
0.11246E+08
0.11042E+08
0.10776E+08
0.10822E+08
0.10918E+08
0.11040E+08
0.10814E+08
0.10825E+08
0.11217E+08
0.11217E+08
0.11458E+08
0.11499E+08
0.11496E+08
0.11436E+08
0.11478E+08
0.11549E+08
0.11269E+08
0.11455E+08
0.11423E+08
0.11021E+08
0.11449E+08
0.11294E+08
0.11428E+08
0.11496E+08
0.11143E+08
0.11252E+08
0.11150E+08
0.11158E+08
0.11316E+08
0.10995E+08
0.10913E+08
0.11261E+08
0.11142E+08
0.11150E+08
0.11157E+08
0.11134E+08
0.11516E+08
0.10799E+08
</weights>
</event>
<event>
      7  10001  1.11453E+07  1.95614E+00 -1.00000E+00  3.58141E-01
      -2    -1     0     0     0   502  0.000000000E+00  0.000000000E+00  2.139491283E+01  2.139491283E+01  0.000000000E+00  0.00000E+00  9.000E+00
      21    -1     0     0   502   501  0.000000000E+00  0.000000000E+00 -3.250797521E-01  3.250797521E-01  0.000000000E+00  0.00000E+00  9.000E+00
      23     2     1     2     0     0 -6.883366988E-01  6.636734199E-01  1.885200177E+01  1.896340568E+01  1.816181238E+00  0.00000E+00  9.000E+00
      11     1     3     3     0     0 -5.611660449E-01  9.648212909E-01  1.819856548E+01  1.823276099E+01  5.110000000E-04  0.00000E+00  9.000E+00
     -11     1     3     3     0     0 -1.271706539E-01 -3.011478710E-01  6.534362964E-01  7.306446948E-01  5.110000000E-04  0.00000E+00  9.000E+00
      -2     1     1     2     0   511 -3.876072527E-01 -3.340716254E-01  6.817992802E-01  8.524631908E-01  0.000000000E+00  0.00000E+00  9.000E+00
      21     1     1     2   511   501  1.075943951E+00 -3.296017945E-01  1.536032025E+00  1.904123712E+00  2.980232239E-08  0.00000E+00  9.000E+00
#rwgt            1           7   1351359.9418581401                3        9216           0
<weights>
0.11145E+08
0.15353E+08
0.66907E+07
0.13008E+08
0.89176E+07
0.12934E+08
0.81319E+07
0.11141E+08
0.11147E+08
0.10643E+08
0.10549E+08
0.10884E+08
0.10872E+08
0.10625E+08
0.10572E+08
0.11258E+08
0.11346E+08
0.11723E+08
0.11796E+08
0.11780E+08
0.11680E+08
0.11811E+08
0.11807E+08
0.11686E+08
0.11401E+08
0.11404E+08
0.11506E+08
0.11718E+08
0.11581E+08
0.11813E+08
0.11824E+08
0.11268E+08
0.11225E+08
0.11113E+08
0.11231E+08
0.11182E+08
0.11137E+08
0.11416E+08
0.10748E+08
0.11249E+08
0.11056E+08
0.11220E+08
0.11067E+08
0.11773E+08
0.10580E+08
</weights>
</event>
<event>
      7  10001 -1.11453E+07  1.24195E+00 -1.00000E+00  4.85330E-01
      21    -1     0     0   502   512  0.000000000E+00  0.000000000E+00  4.094263328E+02  4.094263328E+02  0.000000000E+00  0.00000E+00  9.000E+00
      -2    -1     0     0     0   502  0.000000000E+00  0.000000000E+00 -3.856205565E-01  3.856205565E-01  0.000000000E+00  0.00000E+00  9.000E+00
      23     2     1     2     0     0 -7.803442083E-01  6.807204910E-01  1.732759709E+00  2.318674020E+00  1.140822306E+00  0.00000E+00  9.000E+00
      11     1     3     3     0     0 -4.610024313E-01 -6.362301190E-02  7.196892238E-02  4.709043599E-01  5.110000000E-04  0.00000E+00  9.000E+00
     -11     1     3     3     0     0 -3.193417771E-01  7.443435029E-01  1.660790786E+00  1.847769660E+00  5.110000000E-04  0.00000E+00  9.000E+00
      -2     1     1     2     0   501 -3.446361013E-01 -1.545367188E-01  2.971356826E-01  4.805676369E-01  0.000000000E+00  0.00000E+00  9.000E+00
      21     1     1     2   501   512  1.124980310E+00 -5.261837722E-01  4.070108169E+02  4.070127117E+02  5.394796609E-06  0.00000E+00  9.000E+00
#rwgt            1          14  -570206.12493848451                3       54802           0
<weights>
-.11145E+08
-.85278E+07
-.12668E+08
-.18372E+08
-.58150E+07
-.42005E+07
-.21539E+08
-.11563E+08
-.10644E+08
-.10899E+08
-.10968E+08
-.10962E+08
-.11137E+08
-.10945E+08
-.10968E+08
-.11282E+08
-.11030E+08
-.11306E+08
-.11358E+08
-.11368E+08
-.11283E+08
-.11319E+08
-.11388E+08
-.11119E+08
-.11411E+08
-.11197E+08
-.11142E+08
-.11243E+08
-.11310E+08
-.11269E+08
-.11356E+08
-.11185E+08
-.11161E+08
-.11141E+08
-.11151E+08
-.11527E+08
-.10746E+08
-.10927E+08
-.11284E+08
-.11125E+08
-.11168E+08
-.11117E+08
-.11176E+08
-.11366E+08
-.10934E+08
</weights>
</event>
<event>
      7  10001  1.11453E+07  8.94427E-01 -1.00000E+00  6.07649E-01
      -2    -1     0     0     0   502  0.000000000E+00  0.000000000E+00  4.144737984E+01  4.144737984E+01  0.000000000E+00  0.00000E+00  9.000E+00
      21    -1     0     0   502   501  0.000000000E+00  0.000000000E+00 -1.208409716E-01  1.208409716E-01  0.000000000E+00  0.00000E+00  9.000E+00
      23     2     1     2     0     0 -1.687498186E-01 -2.134860194E-01  4.095328313E+01  4.104482972E+01  2.726278703E+00  0.00000E+00  9.000E+00
      11     1     3     3     0     0 -3.772757661E-01 -1.422617659E+00  1.875379783E+01  1.881146223E+01  5.110000000E-04  0.00000E+00  9.000E+00
     -11     1     3     3     0     0  2.085259476E-01  1.209131639E+00  2.219948530E+01  2.223336749E+01  5.110000000E-04  0.00000E+00  9.000E+00
      -2     1     1     2     0   511  5.039873506E-02  1.837608978E-01  3.509504480E-01  3.993423557E-01  0.000000000E+00  0.00000E+00  9.000E+00
      21     1     1     2   511   501  1.183510835E-01  2.972512159E-02  2.230529582E-02  1.240487325E-01  2.622834876E-08  0.00000E+00  9.000E+00
#rwgt            2         101   15317284.659257879                3       62587           0
<weights>
0.11145E+08
0.11362E+08
0.10650E+08
0.13809E+08
0.85331E+07
0.91702E+07
0.13910E+08
0.11179E+08
0.11110E+08
0.10825E+08
0.10816E+08
0.10961E+08
0.11009E+08
0.10843E+08
0.10827E+08
0.11227E+08
0.11207E+08
0.11461E+08
0.11494E+08
0.11485E+08
0.11437E+08
0.11498E+08
0.11518E+08
0.11393E+08
0.11334E+08
0.11290E+08
0.11291E+08
0.11433E+08
0.11367E+08
0.11475E+08
0.11510E+08
0.11183E+08
0.11216E+08
0.11138E+08
0.11177E+08
0.11214E+08
0.11095E+08
0.11127E+08
0.11089E+08
0.11165E+08
0.11128E+08
0.11184E+08
0.11105E+08
0.11503E+08
0.10816E+08
</weights>
</event>
<event>
      6  10001 -1.11453E+07  8.94427E-01 -1.00000E+00  4.35341E-01
       1    -1     0     0   501     0  0.000000000E+00  0.000000000E+00  1.700800656E-02  1.700800656E-02  0.000000000E+00  0.00000E+00  9.000E+00
      21    -1     0     0   502   501  0.000000000E+00  0.000000000E+00 -1.087811507E+02  1.087811507E+02  0.000000000E+00  0.00000E+00  9.000E+00
      23     2     1     2     0     0  2.126589233E-01  6.340047154E-01 -9.905645455E+01  9.906746526E+01  1.316928191E+00  0.00000E+00  9.000E+00
      11     1     3     3     0     0  3.815338557E-01  6.079904800E-01 -9.731522571E+01  9.731787285E+01  5.110000000E-04  0.00000E+00  9.000E+00
     -11     1     3     3     0     0 -1.688749325E-01  2.601423538E-02 -1.741228844E+00  1.749592419E+00  5.110000000E-04  0.00000E+00  9.000E+00
       1     1     1     2   502     0 -2.126589233E-01 -6.340047154E-01 -9.707688103E+00  9.730693403E+00  0.000000000E+00  0.00000E+00  9.000E+00
#rwgt            1          22  -46712.832928919757                3       62705           0
<weights>
-.11145E+08
-.12286E+08
-.97413E+07
-.14932E+08
-.78053E+07
-.91702E+07
-.13910E+08
-.11154E+08
-.11136E+08
-.11192E+08
-.11216E+08
-.11079E+08
-.11284E+08
-.11241E+08
-.11234E+08
-.11136E+08
-.11069E+08
-.11054E+08
-.10995E+08
-.10990E+08
-.11067E+08
-.11041E+08
-.10990E+08
-.11101E+08
-.11051E+08
-.11094E+08
-.11143E+08
-.11060E+08
-.11038E+08
-.11020E+08
-.11031E+08
-.11106E+08
-.11151E+08
-.11144E+08
-.11138E+08
-.11203E+08
-.11089E+08
-.10979E+08
-.11376E+08
-.11044E+08
-.11240E+08
-.11098E+08
-.11196E+08
-.11057E+08
-.11212E+08
</weights>
</event>
<event>
      7  10001  1.11453E+07  2.11690E+00 -1.00000E+00  3.43731E-01
       2    -1     0     0   501     0  0.000000000E+00  0.000000000E+00  2.341662439E-01  2.341662439E-01  0.000000000E+00  0.00000E+00  9.000E+00
       2    -1     0     0   502     0  0.000000000E+00  0.000000000E+00 -7.176185320E+01  7.176185320E+01  0.000000000E+00  0.00000E+00  9.000E+00
      23     2     1     2     0     0  1.846007175E+00 -1.379814594E+00 -1.208336284E+01  1.243429491E+01  1.814497563E+00  0.00000E+00  9.000E+00
      11     1     3     3     0     0  1.508696852E+00 -1.655683083E+00 -7.423001669E+00  7.753606045E+00  5.110000000E-04  0.00000E+00  9.000E+00
     -11     1     3     3     0     0  3.373103230E-01  2.758684893E-01 -4.660361174E+00  4.680688861E+00  5.110000000E-04  0.00000E+00  9.000E+00
       2     1     1     2   502     0  2.631988289E-01  1.199547071E+00 -1.048830908E+01  1.055996279E+01  0.000000000E+00  0.00000E+00  9.000E+00
       2     1     1     2   501     0 -2.109206004E+00  1.802675228E-01 -4.895601504E+01  4.900176175E+01  0.000000000E+00  0.00000E+00  9.000E+00
#rwgt            1          24   987551.02692092932                3       66195           0
<weights>
0.11145E+08
0.12654E+08
0.95910E+07
0.12062E+08
0.98826E+07
0.11427E+08
0.10445E+08
0.11271E+08
0.11016E+08
0.10657E+08
0.10710E+08
0.10873E+08
0.10966E+08
0.10697E+08
0.10710E+08
0.11249E+08
0.11241E+08
0.11573E+08
0.11634E+08
0.11631E+08
0.11540E+08
0.11602E+08
0.11700E+08
0.11319E+08
0.11559E+08
0.11486E+08
0.11004E+08
0.11547E+08
0.11379E+08
0.11543E+08
0.11627E+08
0.11157E+08
0.11277E+08
0.11151E+08
0.11163E+08
0.11340E+08
0.10976E+08
0.10891E+08
0.11225E+08
0.11166E+08
0.11128E+08
0.11180E+08
0.11109E+08
0.11645E+08
0.10681E+08
</weights>
</event>
<event>
      6  10001 -1.11453E+07  8.94427E-01 -1.00000E+00  1.52713E-01
      -2    -1     0     0     0   502  0.000000000E+00  0.000000000E+00  7.902057823E+01  7.902057823E+01  0.000000000E+00  0.00000E+00  9.000E+00
      21    -1     0     0   502   501  0.000000000E+00  0.000000000E+00 -2.234108182E-02  2.234108182E-02  0.000000000E+00  0.00000E+00  9.000E+00
      23     2     1     2     0     0  3.342787089E-01  5.522233616E-02  7.597095985E+01  7.599674145E+01  1.950173793E+00  0.00000E+00  9.000E+00
      11     1     3     3     0     0 -2.307366592E-01  8.898541181E-02  1.281883394E+00  1.305520244E+00  5.110000000E-04  0.00000E+00  9.000E+00
     -11     1     3     3     0     0  5.650153681E-01 -3.376307565E-02  7.468907646E+01  7.469122120E+01  5.110000000E-04  0.00000E+00  9.000E+00
      -2     1     1     2     0   501 -3.342787089E-01 -5.522233616E-02  3.027277290E+00  3.046177860E+00  0.000000000E+00  0.00000E+00  9.000E+00
#rwgt            1           7  -6268146.4834601004                3      102445           0
<weights>
-.11145E+08
-.13860E+08
-.76465E+07
-.16848E+08
-.61267E+07
-.91693E+07
-.13910E+08
-.11173E+08
-.11119E+08
-.10826E+08
-.10817E+08
-.10963E+08
-.11008E+08
-.10844E+08
-.10828E+08
-.11225E+08
-.11210E+08
-.11458E+08
-.11499E+08
-.11487E+08
-.11435E+08
-.11497E+08
-.11516E+08
-.11405E+08
-.11328E+08
-.11286E+08
-.11342E+08
-.11431E+08
-.11368E+08
-.11474E+08
-.11509E+08
-.11183E+08
-.11216E+08
-.11138E+08
-.11177E+08
-.11209E+08
-.11100E+08
-.11128E+08
-.11089E+08
-.11165E+08
-.11128E+08
-.11184E+08
-.11104E+08
-.11501E+08
-.10818E+08
</weights>
</event>
<event>
      6  10001 -1.11453E+07  8.94427E-01 -1.00000E+00  1.51542E-01
      -1    -1     0     0     0   502  0.000000000E+00  0.000000000E+00  5.431639137E+01  5.431639137E+01  0.000000000E+00  0.00000E+00  9.000E+00
      21    -1     0     0   502   501  0.000000000E+00  0.000000000E+00 -1.065682778E-02  1.065682778E-02  0.000000000E+00  0.00000E+00  9.000E+00
      23     2     1     2     0     0 -2.598504629E-01  2.790278006E-01  4.331639793E+01  4.333109904E+01  1.062278363E+00  0.00000E+00  9.000E+00
      11     1     3     3     0     0  4.063444214E-01  2.127514684E-01  1.823442053E+01  1.824018836E+01  5.110000000E-04  0.00000E+00  9.000E+00
     -11     1     3     3     0     0 -6.661948843E-01  6.627633221E-02  2.508197740E+01  2.509091068E+01  5.110000000E-04  0.00000E+00  9.000E+00
      -1     1     1     2     0   501  2.598504629E-01 -2.790278006E-01  1.098933661E+01  1.099594916E+01  0.000000000E+00  0.00000E+00  9.000E+00
#rwgt            1           9  -1099408.5946831168                3      105375           0
<weights>
-.11145E+08
-.12470E+08
-.96506E+07
-.15163E+08
-.77328E+07
-.91658E+07
-.13909E+08
-.11172E+08
-.11120E+08
-.10825E+08
-.10816E+08
-.10963E+08
-.11008E+08
-.10843E+08
-.10826E+08
-.11225E+08
-.11210E+08
-.11459E+08
-.11501E+08
-.11489E+08
-.11436E+08
-.11498E+08
-.11518E+08
-.11409E+08
-.11328E+08
-.11286E+08
-.11352E+08
-.11432E+08
-.11370E+08
-.11476E+08
-.11511E+08
-.11183E+08
-.11217E+08
-.11138E+08
-.11177E+08
-.11209E+08
-.11101E+08
-.11129E+08
-.11087E+08
-.11165E+08
-.11128E+08
-.11185E+08
-.11104E+08
-.11503E+08
-.10816E+08
</weights>
</event>
<event>
      7  10001  1.11453E+07  5.62960E+00 -1.00000E+00  2.28635E-01
       3    -1     0     0   501     0  0.000000000E+00  0.000000000E+00  1.334187896E+00  1.334187896E+00  0.000000000E+00  0.00000E+00  9.000E+00
      21    -1     0     0   511   501  0.000000000E+00  0.000000000E+00 -5.135100165E+01  5.135100165E+01  0.000000000E+00  0.00000E+00  9.000E+00
      23     2     1     2     0     0 -3.641219432E-01  1.209056129E+00 -1.180678611E-01  1.652390403E+00  1.059269801E+00  0.00000E+00  9.000E+00
      11     1     3     3     0     0  2.653158000E-01  7.307574834E-01 -3.131509833E-01  8.381305225E-01  5.110000000E-04  0.00000E+00  9.000E+00
     -11     1     3     3     0     0 -6.294377432E-01  4.782986461E-01  1.950831222E-01  8.142598805E-01  5.110000000E-04  0.00000E+00  9.000E+00
       3     1     1     2   502     0 -3.580889787E+00  2.807076774E+00 -3.036531965E+01  3.070431710E+01  0.000000000E+00  0.00000E+00  9.000E+00
      21     1     1     2   511   502  3.945011730E+00 -4.016132904E+00 -1.953342624E+01  2.032848204E+01  4.129530925E-07  0.00000E+00  9.000E+00
#rwgt            1          26   634236.87108181405                3      105935           0
<weights>
0.11145E+08
0.11655E+08
0.10467E+08
0.12720E+08
0.93993E+07
0.10181E+08
0.12358E+08
0.11246E+08
0.11044E+08
0.10826E+08
0.10895E+08
0.10953E+08
0.11058E+08
0.10875E+08
0.10893E+08
0.11217E+08
0.11164E+08
0.11386E+08
0.11421E+08
0.11417E+08
0.11369E+08
0.11396E+08
0.11468E+08
0.11215E+08
0.11417E+08
0.11346E+08
0.11043E+08
0.11356E+08
0.11260E+08
0.11342E+08
0.11414E+08
0.11123E+08
0.11249E+08
0.11158E+08
0.11142E+08
0.11302E+08
0.11007E+08
0.10863E+08
0.11348E+08
0.11125E+08
0.11164E+08
0.11161E+08
0.11130E+08
0.11443E+08
0.10863E+08
</weights>
</event>
<event>
      7  10001  1.11453E+07  8.94427E-01 -1.00000E+00  6.07649E-01
      21    -1     0     0   511   502  0.000000000E+00  0.000000000E+00  4.334773868E+00  4.334773868E+00  0.000000000E+00  0.00000E+00  9.000E+00
       1    -1     0     0   501     0  0.000000000E+00  0.000000000E+00 -4.767636233E+00  4.767636233E+00  0.000000000E+00  0.00000E+00  9.000E+00
      23     2     1     2     0     0 -1.752687599E-01 -1.393133184E-02 -4.569548294E+00  4.826970711E+00  1.545303018E+00  0.00000E+00  9.000E+00
      11     1     3     3     0     0 -4.591725504E-01  3.393898557E-01 -4.209684333E+00  4.248231084E+00  5.110000000E-04  0.00000E+00  9.000E+00
     -11     1     3     3     0     0  2.839037905E-01 -3.533211875E-01 -3.598639612E-01  5.787396267E-01  5.110000000E-04  0.00000E+00  9.000E+00
      21     1     1     2   501   502  1.783359179E-01 -5.001801163E-01  2.641062631E+00  2.693918275E+00  8.940696716E-08  0.00000E+00  9.000E+00
       1     1     1     2   511     0 -3.067157973E-03  5.141114481E-01  1.495623298E+00  1.581521115E+00  0.000000000E+00  0.00000E+00  9.000E+00
#rwgt            2         187   797455.20170330629                3      108690           0
<weights>
0.11145E+08
0.11034E+08
0.11057E+08
0.13410E+08
0.88597E+07
0.91702E+07
0.13910E+08
0.11125E+08
0.11161E+08
0.10890E+08
0.10876E+08
0.10953E+08
0.11068E+08
0.10903E+08
0.10892E+08
0.11201E+08
0.11181E+08
0.11467E+08
0.11302E+08
0.11274E+08
0.11461E+08
0.11413E+08
0.11448E+08
0.11281E+08
0.11338E+08
0.11394E+08
0.11030E+08
0.11328E+08
0.11322E+08
0.11385E+08
0.11430E+08
0.11148E+08
0.11226E+08
0.11220E+08
0.11065E+08
0.11086E+08
0.11223E+08
0.11069E+08
0.11138E+08
0.11138E+08
0.11149E+08
0.11207E+08
0.11081E+08
0.11427E+08
0.10884E+08
</weights>
</event>
<event>
      7  10001  1.11453E+07  8.94427E-01 -1.00000E+00  6.07649E-01
      -2    -1     0     0     0   502  0.000000000E+00  0.000000000E+00  3.032443175E-01  3.032443175E-01  0.000000000E+00  0.00000E+00  9.000E+00
      21    -1     0     0   501   511  0.000000000E+00  0.000000000E+00 -3.872231594E+01  3.872231594E+01  0.000000000E+00  0.00000E+00  9.000E+00
      23     2     1     2     0     0  1.899828453E-01 -5.509344457E-01 -1.790597480E+00  2.356200994E+00  1.416270294E+00  0.00000E+00  9.000E+00
      11     1     3     3     0     0  6.893984108E-03 -3.998239351E-01  1.303866270E-01  4.206038988E-01  5.110000000E-04  0.00000E+00  9.000E+00
     -11     1     3     3     0     0  1.830888612E-01 -1.511105106E-01 -1.920984107E+00  1.935597096E+00  5.110000000E-04  0.00000E+00  9.000E+00
      21     1     1     2   501   502 -7.094608831E-01  8.306786962E-01 -2.761227061E+01  2.763387143E+01  3.371747881E-07  0.00000E+00  9.000E+00
      -2     1     1     2     0   511  5.194780378E-01 -2.797442505E-01 -9.016203531E+00  9.035487833E+00  0.000000000E+00  0.00000E+00  9.000E+00
#rwgt            2         102   1045366.2275441715                3      111487           0
<weights>
0.11145E+08
0.10671E+08
0.11527E+08
0.12969E+08
0.92358E+07
0.91702E+07
0.13910E+08
0.11215E+08
0.11076E+08
0.10974E+08
0.11038E+08
0.11012E+08
0.11142E+08
0.11025E+08
0.11040E+08
0.11189E+08
0.11112E+08
0.11243E+08
0.11240E+08
0.11235E+08
0.11239E+08
0.11239E+08
0.11271E+08
0.11146E+08
0.11286E+08
0.11248E+08
0.11071E+08
0.11218E+08
0.11165E+08
0.11194E+08
0.11247E+08
0.11108E+08
0.11214E+08
0.11157E+08
0.11134E+08
0.11265E+08
0.11037E+08
0.10883E+08
0.11399E+08
0.11092E+08
0.11194E+08
0.11140E+08
0.11152E+08
0.11279E+08
0.11011E+08
</weights>
</event>
<event>
      6  10001 -1.11453E+07  8.94427E-01 -1.00000E+00  5.95498E-01
      -4    -1     0     0     0   502  0.000000000E+00  0.000000000E+00  1.243033270E+02  1.243033270E+02  0.000000000E+00  0.00000E+00  9.000E+00
      21    -1     0     0   502   501  0.000000000E+00  0.000000000E+00 -1.582765367E-02  1.582765367E-02  0.000000000E+00  0.00000E+00  9.000E+00
      23     2     1     2     0     0 -3.799469549E-01 -1.576905840E-02  4.515373091E+01  4.518447253E+01  1.622508583E+00  0.00000E+00  9.000E+00
      11     1     3     3     0     0 -6.591055775E-01  1.991403024E-01  4.270283981E+01  4.270839034E+01  5.110000000E-04  0.00000E+00  9.000E+00
     -11     1     3     3     0     0  2.791586226E-01 -2.149093608E-01  2.450891103E+00  2.476082193E+00  5.110000000E-04  0.00000E+00  9.000E+00
      -4     1     1     2     0   501  3.799469549E-01  1.576905840E-02  7.913376841E+01  7.913468210E+01  0.000000000E+00  0.00000E+00  9.000E+00
#rwgt            1           3  -150326.70600937316                3      111567           0
<weights>
-.11145E+08
-.12783E+08
-.92969E+07
-.15543E+08
-.74493E+07
-.91663E+07
-.13909E+08
-.11174E+08
-.11117E+08
-.10828E+08
-.10820E+08
-.10963E+08
-.11010E+08
-.10846E+08
-.10830E+08
-.11225E+08
-.11207E+08
-.11456E+08
-.11495E+08
-.11484E+08
-.11433E+08
-.11494E+08
-.11514E+08
-.11401E+08
-.11329E+08
-.11286E+08
-.11333E+08
-.11428E+08
-.11366E+08
-.11471E+08
-.11506E+08
-.11182E+08
-.11217E+08
-.11138E+08
-.11176E+08
-.11211E+08
-.11099E+08
-.11124E+08
-.11092E+08
-.11164E+08
-.11129E+08
-.11184E+08
-.11105E+08
-.11499E+08
-.10820E+08
</weights>
</event>
<event>
      6  10001 -1.11453E+07  8.94427E-01 -1.00000E+00  5.53274E-01
      21    -1     0     0   502   501  0.000000000E+00  0.000000000E+00  1.956095520E-02  1.956095520E-02  0.000000000E+00  0.00000E+00  9.000E+00
       2    -1     0     0   501     0  0.000000000E+00  0.000000000E+00 -5.247651675E+01  5.247651675E+01  0.000000000E+00  0.00000E+00  9.000E+00
      23     2     1     2     0     0 -1.494469495E-01  5.785746650E-01 -4.158013510E+01  4.160285451E+01  1.238057297E+00  0.00000E+00  9.000E+00
      11     1     3     3     0     0 -6.950141514E-01  2.722906508E-01 -2.133636792E+01  2.134942114E+01  5.110000000E-04  0.00000E+00  9.000E+00
     -11     1     3     3     0     0  5.455672020E-01  3.062840142E-01 -2.024376718E+01  2.025343338E+01  5.110000000E-04  0.00000E+00  9.000E+00
       2     1     1     2   502     0  1.494469495E-01 -5.785746650E-01 -1.087682070E+01  1.089322319E+01  0.000000000E+00  0.00000E+00  9.000E+00
#rwgt            1          17  -7043130.7062099781                3      113101           0
<weights>
-.11145E+08
-.12751E+08
-.94049E+07
-.15497E+08
-.75357E+07
-.91702E+07
-.13910E+08
-.11184E+08
-.11107E+08
-.11082E+08
-.11121E+08
-.11152E+08
-.11064E+08
-.11113E+08
-.11120E+08
-.11107E+08
-.11182E+08
-.11073E+08
-.11288E+08
-.11299E+08
-.11064E+08
-.11169E+08
-.11163E+08
-.11236E+08
-.11092E+08
-.11107E+08
-.11159E+08
-.11304E+08
-.10931E+08
-.11169E+08
-.11147E+08
-.11142E+08
-.11153E+08
-.11067E+08
-.11252E+08
-.11122E+08
-.11166E+08
-.11038E+08
-.11261E+08
-.11079E+08
-.11199E+08
-.11206E+08
-.11080E+08
-.11180E+08
-.11107E+08
</weights>
</event>
<event>
      7  10001  1.11453E+07  4.52860E+00 -1.00000E+00  2.48780E-01
      -2    -1     0     0     0   502  0.000000000E+00  0.000000000E+00  3.856726584E+00  3.856726584E+00  0.000000000E+00  0.00000E+00  9.000E+00
      21    -1     0     0   502   501  0.000000000E+00  0.000000000E+00 -4.737354814E+00  4.737354814E+00  0.000000000E+00  0.00000E+00  9.000E+00
      23     2     1     2     0     0 -1.908521440E+00 -2.902066075E+00  7.614390202E-01  4.127584659E+00  2.095882664E+00  0.00000E+00  9.000E+00
      11     1     3     3     0     0 -2.422182063E-01 -1.387605988E-01  8.549832926E-01  8.994002752E-01  5.110000000E-04  0.00000E+00  9.000E+00
     -11     1     3     3     0     0 -1.666303233E+00 -2.763305476E+00 -9.354427244E-02  3.228184383E+00  5.110000000E-04  0.00000E+00  9.000E+00
      -2     1     1     2     0   511 -2.525870738E-01  7.343784236E-01  3.098951693E-01  8.361500552E-01  0.000000000E+00  0.00000E+00  9.000E+00
      21     1     1     2   511   501  2.161108514E+00  2.167687652E+00 -1.951962420E+00  3.630346684E+00  3.089970552E-07  0.00000E+00  9.000E+00
#rwgt            1           7   948103.55050616933                3      114484           0
<weights>
0.11145E+08
0.12072E+08
0.10144E+08
0.12344E+08
0.96950E+07
0.10768E+08
0.11456E+08
0.11211E+08
0.11075E+08
0.10800E+08
0.10802E+08
0.10943E+08
0.11011E+08
0.10824E+08
0.10811E+08
0.11236E+08
0.11207E+08
0.11485E+08
0.11492E+08
0.11489E+08
0.11457E+08
0.11513E+08
0.11540E+08
0.11335E+08
0.11389E+08
0.11343E+08
0.11106E+08
0.11456E+08
0.11357E+08
0.11483E+08
0.11526E+08
0.11182E+08
0.11222E+08
0.11135E+08
0.11179E+08
0.11253E+08
0.11055E+08
0.11084E+08
0.11106E+08
0.11164E+08
0.11130E+08
0.11178E+08
0.11111E+08
0.11523E+08
0.10797E+08
</weights>
</event>
<event>
      6  10001 -1.11453E+07  8.94427E-01 -1.00000E+00  6.07513E-01
       5    -1     0     0   501     0  0.000000000E+00  0.000000000E+00  4.701066587E-01  4.701066587E-01  0.000000000E+00  0.00000E+00  9.000E+00
      -5    -1     0     0     0   502  0.000000000E+00  0.000000000E+00 -4.222187358E+00  4.222187358E+00  0.000000000E+00  0.00000E+00  9.000E+00
      23     2     1     2     0     0  4.247953004E-01  2.847610243E-01 -3.699855195E+00  4.178224574E+00  1.872723216E+00  0.00000E+00  9.000E+00
      11     1     3     3     0     0 -2.912308951E-01 -5.183803883E-01 -2.486084270E+00  2.556198138E+00  5.110000000E-04  0.00000E+00  9.000E+00
     -11     1     3     3     0     0  7.160261955E-01  8.031414127E-01 -1.213770925E+00  1.622026437E+00  5.110000000E-04  0.00000E+00  9.000E+00
      21     1     1     2   501   502 -4.247953004E-01 -2.847610243E-01 -5.222550425E-02  5.140694423E-01  2.905069657E-08  0.00000E+00  9.000E+00
#rwgt            1          29  -65340.513380317869                3      157339           0
<weights>
-.11145E+08
-.10751E+08
-.10621E+08
-.17079E+08
-.68264E+07
-.69175E+07
-.17368E+08
-.11206E+08
-.11083E+08
-.10933E+08
-.10968E+08
-.11003E+08
-.11096E+08
-.10968E+08
-.10973E+08
-.11206E+08
-.11138E+08
-.11314E+08
-.11318E+08
-.11314E+08
-.11302E+08
-.11320E+08
-.11354E+08
-.11209E+08
-.11306E+08
-.11253E+08
-.11098E+08
-.11282E+08
-.11235E+08
-.11285E+08
-.11331E+08
-.11137E+08
-.11209E+08
-.11148E+08
-.11151E+08
-.11243E+08
-.11059E+08
-.10972E+08
-.11266E+08
-.11119E+08
-.11169E+08
-.11157E+08
-.11133E+08
-.11347E+08
-.10953E+08
</weights>
</event>
<event>
      7  10001  1.11453E+07  1.38681E+00 -1.00000E+00  4.50638E-01
      21    -1     0     0   511   501  0.000000000E+00  0.000000000E+00  1.542997741E+02  1.542997741E+02  0.000000000E+00  0.00000E+00  9.000E+00
       1    -1     0     0   501     0  0.000000000E+00  0.000000000E+00 -7.830482695E+01  7.830482695E+01  0.000000000E+00  0.00000E+00  9.000E+00
      23     2     1     2     0     0  4.228197416E-01 -1.396111171E-01 -7.800407712E+01  7.811015563E+01  4.045008904E+00  0.00000E+00  9.000E+00
      11     1     3     3     0     0  2.193616238E+00 -5.261485707E-01 -4.415908580E+01  4.421666703E+01  5.110000000E-04  0.00000E+00  9.000E+00
     -11     1     3     3     0     0 -1.770796496E+00  3.865374537E-01 -3.384499132E+01  3.389348860E+01  5.110000000E-04  0.00000E+00  9.000E+00
       1     1     1     2   502     0  2.125528327E-01 -1.093087423E+00  1.022994893E+00  1.512130077E+00  0.000000000E+00  0.00000E+00  9.000E+00
      21     1     1     2   511   502 -6.353725743E-01  1.232698540E+00  1.529760294E+02  1.529823153E+02  2.697398305E-06  0.00000E+00  9.000E+00
#rwgt            1          16   11356021.092496984                3      158122           0
<weights>
0.11145E+08
0.11561E+08
0.10663E+08
0.12159E+08
0.99757E+07
0.10540E+08
0.11807E+08
0.11224E+08
0.11067E+08
0.11107E+08
0.11109E+08
0.11013E+08
0.11179E+08
0.11128E+08
0.11134E+08
0.10678E+08
0.11633E+08
0.11010E+08
0.11224E+08
0.11203E+08
0.10996E+08
0.11168E+08
0.11123E+08
0.11217E+08
0.11070E+08
0.11168E+08
0.11103E+08
0.11108E+08
0.11021E+08
0.11138E+08
0.11144E+08
0.11103E+08
0.11186E+08
0.11006E+08
0.11214E+08
0.11048E+08
0.11229E+08
0.11016E+08
0.11294E+08
0.11151E+08
0.11128E+08
0.11243E+08
0.11041E+08
0.11165E+08
0.11120E+08
</weights>
</event>
<event>
      7  10001  1.11453E+07  1.38016E+00 -1.00000E+00  4.52119E-01
      21    -1     0     0   502   501  0.000000000E+00  0.000000000E+00  4.064411037E+00  4.064411037E+00  0.000000000E+00  0.00000E+00  9.000E+00
       1    -1     0     0   511     0  0.000000000E+00  0.000000000E+00 -4.395606043E+00  4.395606043E+00  0.000000000E+00  0.00000E+00  9.000E+00
      23     2     1     2     0     0  6.063915422E-01 -1.432038041E+00 -1.288776108E+00  3.919636964E+00  3.359191334E+00  0.00000E+00  9.000E+00
      11     1     3     3     0     0 -7.629023590E-02 -1.501687105E-01 -2.199136478E+00  2.205577555E+00  5.110000000E-04  0.00000E+00  9.000E+00
     -11     1     3     3     0     0  6.826817781E-01 -1.281869331E+00  9.103603705E-01  1.714059409E+00  5.110000000E-04  0.00000E+00  9.000E+00
       1     1     1     2   502     0  6.529591961E-01  8.673466892E-01  2.344555074E+00  2.583715249E+00  0.000000000E+00  0.00000E+00  9.000E+00
      21     1     1     2   511   501 -1.259350738E+00  5.646913523E-01 -1.386973972E+00  1.956664868E+00  2.580956828E-08  0.00000E+00  9.000E+00
#rwgt            1          16   248801.33346352758                3      180647           0
<weights>
0.11145E+08
0.12980E+08
0.93837E+07
0.12114E+08
0.98542E+07
0.11621E+08
0.10148E+08
0.10993E+08
0.11299E+08
0.10848E+08
0.10791E+08
0.10935E+08
0.11020E+08
0.10846E+08
0.10814E+08
0.11247E+08
0.11189E+08
0.11606E+08
0.11313E+08
0.11272E+08
0.11603E+08
0.11507E+08
0.11528E+08
0.11372E+08
0.11344E+08
0.11471E+08
0.11020E+08
0.11399E+08
0.11401E+08
0.11491E+08
0.11524E+08
0.11163E+08
0.11240E+08
0.11273E+08
0.11024E+08
0.10957E+08
0.11363E+08
0.11185E+08
0.11016E+08
0.11154E+08
0.11133E+08
0.11238E+08
0.11047E+08
0.11504E+08
0.10818E+08
</weights>
</event>
<event>
      6  10001 -1.11453E+07  8.94427E-01 -1.00000E+00  5.96020E-01
      21    -1     0     0   502   501  0.000000000E+00  0.000000000E+00  3.868303208E-03  3.868303208E-03  0.000000000E+00  0.00000E+00  9.000E+00
       4    -1     0     0   501     0  0.000000000E+00  0.000000000E+00 -1.862069460E+02  1.862069460E+02  0.000000000E+00  0.00000E+00  9.000E+00
      23     2     1     2     0     0  3.314198590E-01  2.028193999E-02 -1.736230488E+02  1.736264042E+02  1.027089100E+00  0.00000E+00  9.000E+00
      11     1     3     3     0     0 -3.335902683E-01  1.338360645E-01 -3.871216823E+01  3.871383685E+01  5.110000000E-04  0.00000E+00  9.000E+00
     -11     1     3     3     0     0  6.650101273E-01 -1.135541245E-01 -1.349108805E+02  1.349125673E+02  5.110000000E-04  0.00000E+00  9.000E+00
       4     1     1     2   502     0 -3.314198590E-01 -2.028193999E-02 -1.258002897E+01  1.258441017E+01  0.000000000E+00  0.00000E+00  9.000E+00
#rwgt            1          19  -1109923.8650896922                3      193785           0
<weights>
-.11145E+08
-.12862E+08
-.92467E+07
-.15632E+08
-.74090E+07
-.91702E+07
-.13910E+08
-.10997E+08
-.11287E+08
-.11590E+08
-.11417E+08
-.11145E+08
-.11553E+08
-.11530E+08
-.11494E+08
-.11080E+08
-.11041E+08
-.10816E+08
-.10722E+08
-.10725E+08
-.10842E+08
-.10787E+08
-.10680E+08
-.11112E+08
-.10678E+08
-.10822E+08
-.11271E+08
-.10877E+08
-.10918E+08
-.10846E+08
-.10763E+08
-.11199E+08
-.10973E+08
-.11082E+08
-.11201E+08
-.11048E+08
-.11224E+08
-.11381E+08
-.10944E+08
-.10945E+08
-.11334E+08
-.11024E+08
-.11275E+08
-.10747E+08
-.11510E+08
</weights>
</event>
<event>
      7  10001  1.11453E+07  3.88586E+00 -1.00000E+00  2.63206E-01
      21    -1     0     0   502   501  0.000000000E+00  0.000000000E+00  2.448460035E-01  2.448460035E-01  0.000000000E+00  0.00000E+00  9.000E+00
       2    -1     0     0   501     0  0.000000000E+00  0.000000000E+00 -2.142417026E+01  2.142417026E+01  0.000000000E+00  0.00000E+00  9.000E+00
      23     2     1     2     0     0 -2.004276293E-02 -2.846605315E-01 -1.718781862E+01  1.726351179E+01  1.589432929E+00  0.00000E+00  9.000E+00
      11     1     3     3     0     0 -4.801440086E-01  7.567050343E-02 -1.796305234E+00  1.860907587E+00  5.110000000E-04  0.00000E+00  9.000E+00
     -11     1     3     3     0     0  4.601012457E-01 -3.603310349E-01 -1.539151338E+01  1.540260420E+01  5.110000000E-04  0.00000E+00  9.000E+00
       2     1     1     2   511     0 -7.883874790E-02 -6.267888633E-02 -4.039883134E+00  4.041138445E+00  0.000000000E+00  0.00000E+00  9.000E+00
      21     1     1     2   502   511  9.888151083E-02  3.473394178E-01  4.837749427E-02  3.643660334E-01  3.545147611E-08  0.00000E+00  9.000E+00
#rwgt            2         189   809950.88288836845                3      194961           0
<weights>
0.11145E+08
0.11436E+08
0.10600E+08
0.13898E+08
0.84933E+07
0.91702E+07
0.13910E+08
0.11196E+08
0.11094E+08
0.10972E+08
0.11012E+08
0.11093E+08
0.11019E+08
0.11004E+08
0.11013E+08
0.11088E+08
0.11281E+08
0.11183E+08
0.11411E+08
0.11418E+08
0.11170E+08
0.11284E+08
0.11300E+08
0.11248E+08
0.11233E+08
0.11229E+08
0.11102E+08
0.11392E+08
0.11010E+08
0.11269E+08
0.11264E+08
0.11145E+08
0.11187E+08
0.11087E+08
0.11239E+08
0.11105E+08
0.11193E+08
0.10984E+08
0.11267E+08
0.11093E+08
0.11187E+08
0.11212E+08
0.11075E+08
0.11300E+08
0.10997E+08
</weights>
</event>
<event>
      6  10001 -1.11453E+07  8.94427E-01 -1.00000E+00  6.07569E-01
      21    -1     0     0   502   501  0.000000000E+00  0.000000000E+00  3.460689324E-02  3.460689324E-02  0.000000000E+00  0.00000E+00  9.000E+00
      -2    -1     0     0     0   502  0.000000000E+00  0.000000000E+00 -3.857385850E+01  3.857385850E+01  0.000000000E+00  0.00000E+00  9.000E+00
      23     2     1     2     0     0  2.435422282E-01  8.925915044E-02 -3.468400949E+01  3.474450735E+01  2.032977224E+00  0.00000E+00  9.000E+00
      11     1     3     3     0     0 -1.780678846E-01 -2.516807441E-01 -3.222300519E+01  3.222448006E+01  5.110000000E-04  0.00000E+00  9.000E+00
     -11     1     3     3     0     0  4.216101128E-01  3.409398946E-01 -2.461004304E+00  2.520027291E+00  5.110000000E-04  0.00000E+00  9.000E+00
      -2     1     1     2     0   501 -2.435422282E-01 -8.925915044E-02 -3.855242112E+00  3.863958043E+00  0.000000000E+00  0.00000E+00  9.000E+00
#rwgt            1          14  -2143196.3561743703                3      195307           0
<weights>
-.11145E+08
-.99998E+07
-.12353E+08
-.13553E+08
-.90691E+07
-.82656E+07
-.15298E+08
-.11210E+08
-.11081E+08
-.11026E+08
-.11084E+08
-.11045E+08
-.11122E+08
-.11078E+08
-.11087E+08
-.11108E+08
-.11189E+08
-.11220E+08
-.11155E+08
-.11135E+08
-.11228E+08
-.11189E+08
-.11205E+08
-.11171E+08
-.11198E+08
-.11235E+08
-.11076E+08
-.11190E+08
-.11074E+08
-.11154E+08
-.11192E+08
-.11093E+08
-.11212E+08
-.11231E+08
-.11062E+08
-.11096E+08
-.11192E+08
-.10924E+08
-.11378E+08
-.11093E+08
-.11185E+08
-.11217E+08
-.11069E+08
-.11221E+08
-.11064E+08
</weights>
</event>
<event>
      6  10001  1.11453E+07  8.94427E-01 -1.00000E+00  6.04478E-01
      21    -1     0     0   502   501  0.000000000E+00  0.000000000E+00  2.370988468E+01  2.370988468E+01  0.000000000E+00  0.00000E+00  9.000E+00
       2    -1     0     0   501     0  0.000000000E+00  0.000000000E+00 -2.971682025E-02  2.971682025E-02  0.000000000E+00  0.00000E+00  9.000E+00
      23     2     1     2     0     0  1.896799915E-01  4.137908712E-01  1.603309896E+01  1.607899681E+01  1.125466541E+00  0.00000E+00  9.000E+00
      11     1     3     3     0     0  5.171676575E-01  2.845657921E-01  4.267476303E+00  4.308107976E+00  5.110000000E-04  0.00000E+00  9.000E+00
     -11     1     3     3     0     0 -3.274876660E-01  1.292250792E-01  1.176562265E+01  1.177088884E+01  5.110000000E-04  0.00000E+00  9.000E+00
       2     1     1     2   502     0 -1.896799915E-01 -4.137908712E-01  7.647068902E+00  7.660604688E+00  0.000000000E+00  0.00000E+00  9.000E+00
#rwgt            1          17   316774.38975437731                3      212217           0
<weights>
0.11145E+08
0.14807E+08
0.79196E+07
0.10581E+08
0.10728E+08
0.13958E+08
0.65603E+07
0.10577E+08
0.11961E+08
0.10762E+08
0.10662E+08
0.10977E+08
0.10867E+08
0.10750E+08
0.10684E+08
0.11146E+08
0.11421E+08
0.11606E+08
0.11653E+08
0.11610E+08
0.11587E+08
0.11680E+08
0.11636E+08
0.11769E+08
0.11192E+08
0.11370E+08
0.11673E+08
0.11631E+08
0.11417E+08
0.11690E+08
0.11658E+08
0.11169E+08
0.11285E+08
0.11125E+08
0.11217E+08
0.10811E+08
0.11560E+08
0.11346E+08
0.10886E+08
0.11203E+08
0.11091E+08
0.11258E+08
0.11026E+08
0.11635E+08
0.10704E+08
</weights>
</event>
<event>
      6  10001 -1.11453E+07  8.94427E-01 -1.00000E+00  4.41952E-01
       2    -1     0     0   501     0  0.000000000E+00  0.000000000E+00  1.184362178E+02  1.184362178E+02  0.000000000E+00  0.00000E+00  9.000E+00
      21    -1     0     0   502   501  0.000000000E+00  0.000000000E+00 -8.748775756E-03  8.748775756E-03  0.000000000E+00  0.00000E+00  9.000E+00
      23     2     1     2     0     0 -3.914340126E-01  6.392648285E-01  7.430640869E+01  7.431753922E+01  1.045171304E+00  0.00000E+00  9.000E+00
      11     1     3     3     0     0 -1.921041475E-01  7.017548102E-01  7.137039160E+01  7.137410008E+01  5.110000000E-04  0.00000E+00  9.000E+00
     -11     1     3     3     0     0 -1.993298650E-01 -6.248998164E-02  2.936017087E+00  2.943439144E+00  5.110000000E-04  0.00000E+00  9.000E+00
       2     1     1     2   502     0  3.914340126E-01 -6.392648285E-01  4.412106029E+01  4.412742731E+01  0.000000000E+00  0.00000E+00  9.000E+00
#rwgt            1          24  -6533149.6313084550                3      221755           0
<weights>
-.11145E+08
-.12497E+08
-.96194E+07
-.15199E+08
-.77079E+07
-.91644E+07
-.13909E+08
-.11172E+08
-.11119E+08
-.10827E+08
-.10818E+08
-.10963E+08
-.11009E+08
-.10845E+08
-.10828E+08
-.11225E+08
-.11209E+08
-.11458E+08
-.11499E+08
-.11487E+08
-.11435E+08
-.11496E+08
-.11516E+08
-.11406E+08
-.11328E+08
-.11286E+08
-.11348E+08
-.11430E+08
-.11368E+08
-.11473E+08
-.11508E+08
-.11182E+08
-.11217E+08
-.11138E+08
-.11177E+08
-.11209E+08
-.11100E+08
-.11127E+08
-.11089E+08
-.11165E+08
-.11129E+08
-.11184E+08
-.11104E+08
-.11501E+08
-.10818E+08
</weights>
</event>
<event>
      7  10001  1.11453E+07  5.96239E+00 -1.00000E+00  2.24795E-01
      21    -1     0     0   502   501  0.000000000E+00  0.000000000E+00  1.218811119E+02  1.218811119E+02  0.000000000E+00  0.00000E+00  9.000E+00
      21    -1     0     0   511   502  0.000000000E+00  0.000000000E+00 -9.565239436E-01  9.565239436E-01  0.000000000E+00  0.00000E+00  9.000E+00
      23     2     1     2     0     0  1.180501720E+00  8.574631733E-01  8.361475417E+00  8.577817313E+00  1.239294678E+00  0.00000E+00  9.000E+00
      11     1     3     3     0     0  7.095515218E-01  1.026027276E+00  4.059264851E+00  4.246625334E+00  5.110000000E-04  0.00000E+00  9.000E+00
     -11     1     3     3     0     0  4.709501978E-01 -1.685641024E-01  4.302210565E+00  4.331191979E+00  5.110000000E-04  0.00000E+00  9.000E+00
      -5     1     1     2     0   501 -6.262431518E+00  2.260877468E+00  1.012764610E+02  1.014950795E+02  0.000000000E+00  0.00000E+00  9.000E+00
       5     1     1     2   511     0  5.081929798E+00 -3.118340641E+00  1.128665153E+01  1.276473899E+01  0.000000000E+00  0.00000E+00  9.000E+00
#rwgt            2         183   87315.047311419941                3      225385           0
<weights>
0.11145E+08
0.10085E+08
0.12203E+08
0.12257E+08
0.97776E+07
0.91702E+07
0.13910E+08
0.11196E+08
0.11091E+08
0.10850E+08
0.10854E+08
0.10969E+08
0.11032E+08
0.10873E+08
0.10862E+08
0.11225E+08
0.11187E+08
0.11428E+08
0.11443E+08
0.11437E+08
0.11406E+08
0.11454E+08
0.11478E+08
0.11325E+08
0.11338E+08
0.11289E+08
0.11172E+08
0.11397E+08
0.11331E+08
0.11428E+08
0.11467E+08
0.11172E+08
0.11214E+08
0.11139E+08
0.11171E+08
0.11230E+08
0.11076E+08
0.11083E+08
0.11134E+08
0.11154E+08
0.11139E+08
0.11176E+08
0.11113E+08
0.11465E+08
0.10849E+08
</weights>
</event>
<event>
      7  10001  1.11453E+07  2.71996E+00 -1.00000E+00  3.05062E-01
      21    -1     0     0   511   501  0.000000000E+00  0.000000000E+00  2.526618367E+00  2.526618367E+00  0.000000000E+00  0.00000E+00  9.000E+00
       1    -1     0     0   501     0  0.000000000E+00  0.000000000E+00 -9.019522104E+00  9.019522104E+00  0.000000000E+00  0.00000E+00  9.000E+00
      23     2     1     2     0     0  3.903456844E-01  5.425974956E-01 -3.757976481E+00  3.947801125E+00  1.007950740E+00  0.00000E+00  9.000E+00
      11     1     3     3     0     0  3.319754158E-01  6.393712111E-01 -3.766202891E+00  3.834486628E+00  5.110000000E-04  0.00000E+00  9.000E+00
     -11     1     3     3     0     0  5.837026852E-02 -9.677371551E-02  8.226409965E-03  1.133144969E-01  5.110000000E-04  0.00000E+00  9.000E+00
       1     1     1     2   502     0 -1.127650134E+00  2.075523424E+00 -3.963353767E+00  4.613844968E+00  0.000000000E+00  0.00000E+00  9.000E+00
      21     1     1     2   511   502  7.373044492E-01 -2.618120920E+00  1.228426512E+00  2.984494378E+00  3.332000937E-08  0.00000E+00  9.000E+00
#rwgt            1          16   270593.00067356043                3      225598           0
<weights>
0.11145E+08
0.15398E+08
0.72601E+07
0.11762E+08
0.98103E+07
0.13604E+08
0.71041E+07
0.10938E+08
0.11343E+08
0.10844E+08
0.10740E+08
0.10878E+08
0.11034E+08
0.10817E+08
0.10778E+08
0.11231E+08
0.11194E+08
0.11745E+08
0.11199E+08
0.11120E+08
0.11759E+08
0.11541E+08
0.11584E+08
0.11388E+08
0.11378E+08
0.11640E+08
0.10906E+08
0.11358E+08
0.11482E+08
0.11526E+08
0.11572E+08
0.11158E+08
0.11256E+08
0.11392E+08
0.10866E+08
0.10757E+08
0.11565E+08
0.11234E+08
0.10927E+08
0.11156E+08
0.11126E+08
0.11297E+08
0.10984E+08
0.11535E+08
0.10793E+08
</weights>
</event>
<event>
      7  10001  1.11453E+07  8.94427E-01 -1.00000E+00  6.07649E-01
      21    -1     0     0   501   511  0.000000000E+00  0.000000000E+00  1.110977449E+03  1.110977449E+03  0.000000000E+00  0.00000E+00  9.000E+00
      -2    -1     0     0     0   502  0.000000000E+00  0.000000000E+00 -2.325585706E-01  2.325585706E-01  0.000000000E+00  0.00000E+00  9.000E+00
      23     2     1     2     0     0 -3.553972591E-02  5.742428652E-01  1.284568389E+01  1.330952691E+01  3.435242903E+00  0.00000E+00  9.000E+00
      11     1     3     3     0     0 -1.399367082E+00  3.523023976E-01  2.621765067E+00  2.992657270E+00  5.110000000E-04  0.00000E+00  9.000E+00
     -11     1     3     3     0     0  1.363827356E+00  2.219404676E-01  1.022391883E+01  1.031686964E+01  5.110000000E-04  0.00000E+00  9.000E+00
      21     1     1     2   501   502  2.342568637E-01 -3.147492312E-01  1.053428555E+03  1.053428628E+03  2.157918644E-05  0.00000E+00  9.000E+00
      -2     1     1     2     0   511 -1.987171378E-01 -2.594936341E-01  4.447065176E+01  4.447185282E+01  0.000000000E+00  0.00000E+00  9.000E+00
#rwgt            2         161   1535753.5258223072                3      228489           0
<weights>
0.11145E+08
0.89833E+07
0.14034E+08
0.10918E+08
0.11245E+08
0.91702E+07
0.13910E+08
0.11065E+08
0.11250E+08
0.10825E+08
0.10803E+08
0.10970E+08
0.10988E+08
0.10839E+08
0.10815E+08
0.11204E+08
0.11250E+08
0.11481E+08
0.11488E+08
0.11475E+08
0.11459E+08
0.11514E+08
0.11522E+08
0.11417E+08
0.11312E+08
0.11324E+08
0.11215E+08
0.11462E+08
0.11347E+08
0.11497E+08
0.11518E+08
0.11170E+08
0.11234E+08
0.11139E+08
0.11179E+08
0.11118E+08
0.11201E+08
0.11150E+08
0.11069E+08
0.11167E+08
0.11125E+08
0.11200E+08
0.11088E+08
0.11511E+08
0.10810E+08
</weights>
</event>
<event>
      6  10001 -1.11453E+07  8.94427E-01 -1.00000E+00  5.96041E-01
      21    -1     0     0   502   501  0.000000000E+00  0.000000000E+00  7.895763942E-03  7.895763942E-03  0.000000000E+00  0.00000E+00  9.000E+00
       3    -1     0     0   501     0  0.000000000E+00  0.000000000E+00 -1.013694047E+02  1.013694047E+02  0.000000000E+00  0.00000E+00  9.000E+00
      23     2     1     2     0     0  3.356632615E-02  2.842162148E-01 -9.598515299E+01  9.599333270E+01  1.220009850E+00  0.00000E+00  9.000E+00
      11     1     3     3     0     0 -6.038106397E-02  7.046100042E-01 -3.800190991E+01  3.800848955E+01  5.110000000E-04  0.00000E+00  9.000E+00
     -11     1     3     3     0     0  9.394739012E-02 -4.203937894E-01 -5.798324308E+01  5.798484315E+01  5.110000000E-04  0.00000E+00  9.000E+00
       3     1     1     2   502     0 -3.356632615E-02 -2.842162148E-01 -5.376355988E+00  5.383967800E+00  0.000000000E+00  0.00000E+00  9.000E+00
#rwgt            1          18  -609057.37550181139                3      228987           0
<weights>
-.11144E+08
-.12063E+08
-.10080E+08
-.14660E+08
-.80769E+07
-.91691E+07
-.13908E+08
-.11111E+08
-.11174E+08
-.11131E+08
-.11265E+08
-.11411E+08
-.10855E+08
-.11230E+08
-.11199E+08
-.12523E+08
-.93228E+07
-.11593E+08
-.10330E+08
-.10324E+08
-.11542E+08
-.11031E+08
-.11063E+08
-.10076E+08
-.12059E+08
-.10813E+08
-.10494E+08
-.10121E+08
-.12193E+08
-.10957E+08
-.11124E+08
-.11233E+08
-.11026E+08
-.11216E+08
-.11079E+08
-.11182E+08
-.11104E+08
-.11056E+08
-.11267E+08
-.11087E+08
-.11184E+08
-.11246E+08
-.11034E+08
-.11069E+08
-.11201E+08
</weights>
</event>
<event>
      6  10001  1.11453E+07  8.94427E-01 -1.00000E+00  6.00874E-01
       4    -1     0     0   501     0  0.000000000E+00  0.000000000E+00  2.838128034E-02  2.838128034E-02  0.000000000E+00  0.00000E+00  9.000E+00
      21    -1     0     0   502   501  0.000000000E+00  0.000000000E+00 -7.947754863E+01  7.947754863E+01  0.000000000E+00  0.00000E+00  9.000E+00
      23     2     1     2     0     0 -1.250453048E+00 -5.079053370E-02 -4.664472950E+01  4.667762878E+01  1.226387315E+00  0.00000E+00  9.000E+00
      11     1     3     3     0     0 -1.365662469E-01 -4.940218683E-01 -9.792032552E+00  9.805437762E+00  5.110000000E-04  0.00000E+00  9.000E+00
     -11     1     3     3     0     0 -1.113886801E+00  4.432313346E-01 -3.685269695E+01  3.687219102E+01  5.110000000E-04  0.00000E+00  9.000E+00
       4     1     1     2   502     0  1.250453048E+00  5.079053370E-02 -3.280443784E+01  3.282830112E+01  0.000000000E+00  0.00000E+00  9.000E+00
#rwgt            1          28   460314.02462603652                3      229246           0
<weights>
0.11145E+08
0.12287E+08
0.98425E+07
0.12496E+08
0.95251E+07
0.10842E+08
0.11343E+08
0.11283E+08
0.11010E+08
0.10838E+08
0.10994E+08
0.10932E+08
0.11132E+08
0.10964E+08
0.10988E+08
0.11210E+08
0.11071E+08
0.11282E+08
0.11264E+08
0.11254E+08
0.11278E+08
0.11277E+08
0.11304E+08
0.11126E+08
0.11366E+08
0.11292E+08
0.11052E+08
0.11237E+08
0.11153E+08
0.11185E+08
0.11285E+08
0.11053E+08
0.11284E+08
0.11187E+08
0.11100E+08
0.11361E+08
0.10952E+08
0.10603E+08
0.11741E+08
0.11052E+08
0.11230E+08
0.11135E+08
0.11157E+08
0.11353E+08
0.10928E+08
</weights>
</event>
<event>
      6  10001 -1.11453E+07  8.94427E-01 -1.00000E+00  2.30476E-01
      21    -1     0     0   502   501  0.000000000E+00  0.000000000E+00  2.464144010E-02  2.464144010E-02  0.000000000E+00  0.00000E+00  9.000E+00
       2    -1     0     0   501     0  0.000000000E+00  0.000000000E+00 -4.603801999E+02  4.603801999E+02  0.000000000E+00  0.00000E+00  9.000E+00
      23     2     1     2     0     0 -5.656402944E-01  2.415739138E-02 -4.565237399E+02  4.565314235E+02  2.587467996E+00  0.00000E+00  9.000E+00
      11     1     3     3     0     0 -1.114723928E+00 -3.959490384E-01 -4.167250229E+02  4.167267019E+02  5.110000000E-04  0.00000E+00  9.000E+00
     -11     1     3     3     0     0  5.490836335E-01  4.201064297E-01 -3.979871701E+01  3.980472156E+01  5.110000000E-04  0.00000E+00  9.000E+00
       2     1     1     2   502     0  5.656402944E-01 -2.415739138E-02 -3.831818570E+00  3.873417880E+00  0.000000000E+00  0.00000E+00  9.000E+00
#rwgt            1          17  -519304065.67989886                3      274589           0
<weights>
-.11145E+08
-.11799E+08
-.10318E+08
-.14340E+08
-.82671E+07
-.91702E+07
-.13910E+08
-.11130E+08
-.11160E+08
-.11165E+08
-.11151E+08
-.10988E+08
-.11324E+08
-.11157E+08
-.11153E+08
-.11284E+08
-.10935E+08
-.11465E+08
-.10688E+08
-.10624E+08
-.11503E+08
-.11108E+08
-.11171E+08
-.11047E+08
-.11204E+08
-.11339E+08
-.11023E+08
-.10754E+08
-.11572E+08
-.11068E+08
-.11188E+08
-.11026E+08
-.11262E+08
-.11509E+08
-.10698E+08
-.11098E+08
-.11188E+08
-.11148E+08
-.11149E+08
-.11252E+08
-.11049E+08
-.11134E+08
-.11156E+08
-.11132E+08
-.11159E+08
</weights>
</event>
<event>
      7  10001  1.11453E+07  1.35578E+00 -1.00000E+00  4.57634E-01
      21    -1     0     0   511   501  0.000000000E+00  0.000000000E+00  3.944117258E+01  3.944117258E+01  0.000000000E+00  0.00000E+00  9.000E+00
      -3    -1     0     0     0   502  0.000000000E+00  0.000000000E+00 -2.163728244E-01  2.163728244E-01  0.000000000E+00  0.00000E+00  9.000E+00
      23     2     1     2     0     0 -1.031693143E+00  6.899753224E-02  6.225508154E+00  6.481191903E+00  1.476396054E+00  0.00000E+00  9.000E+00
      11     1     3     3     0     0 -8.225782416E-02 -5.291703411E-01  3.384317438E+00  3.426425599E+00  5.110000000E-04  0.00000E+00  9.000E+00
     -11     1     3     3     0     0 -9.494353190E-01  5.981678733E-01  2.841190715E+00  3.054766304E+00  5.110000000E-04  0.00000E+00  9.000E+00
      -3     1     1     2     0   501  3.022390918E-01  1.073824832E+00  4.214166075E+00  4.359316913E+00  0.000000000E+00  0.00000E+00  9.000E+00
      21     1     1     2   511   502  7.294540514E-01 -1.142822364E+00  2.878512552E+01  2.881703659E+01  3.371747881E-07  0.00000E+00  9.000E+00
#rwgt            1          13   98352.334650994802                3      276654           0
<weights>
0.11145E+08
0.14216E+08
0.84207E+07
0.11116E+08
0.10357E+08
0.13137E+08
0.78206E+07
0.11156E+08
0.11133E+08
0.10740E+08
0.10703E+08
0.10993E+08
0.10870E+08
0.10742E+08
0.10717E+08
0.11174E+08
0.11298E+08
0.11281E+08
0.12446E+08
0.12215E+08
0.11293E+08
0.11615E+08
0.11686E+08
0.13105E+08
0.10852E+08
0.10666E+08
0.17874E+08
0.11330E+08
0.11853E+08
0.11608E+08
0.11679E+08
0.11260E+08
0.11184E+08
0.11141E+08
0.11189E+08
0.11196E+08
0.11117E+08
0.11300E+08
0.10913E+08
0.11214E+08
0.11085E+08
0.11222E+08
0.11065E+08
0.11625E+08
0.10710E+08
</weights>
</event>
<event>
      6  10001 -1.11453E+07  8.94427E-01 -1.00000E+00  4.34596E-01
       2    -1     0     0   501     0  0.000000000E+00  0.000000000E+00  1.758270002E+02  1.758270002E+02  0.000000000E+00  0.00000E+00  9.000E+00
      21    -1     0     0   502   501  0.000000000E+00  0.000000000E+00 -1.319951572E-02  1.319951572E-02  0.000000000E+00  0.00000E+00  9.000E+00
      23     2     1     2     0     0 -9.712974193E-02 -5.268349775E-01  1.662311569E+02  1.662425932E+02  1.874906469E+00  0.00000E+00  9.000E+00
      11     1     3     3     0     0  4.467625292E-01 -1.049784212E+00  1.182566436E+02  1.182621469E+02  5.110000000E-04  0.00000E+00  9.000E+00
     -11     1     3     3     0     0 -5.438922711E-01  5.229492344E-01  4.797451327E+01  4.798044621E+01  5.110000000E-04  0.00000E+00  9.000E+00
       2     1     1     2   502     0  9.712974193E-02  5.268349775E-01  9.582643773E+00  9.597606523E+00  0.000000000E+00  0.00000E+00  9.000E+00
#rwgt            1          24  -15213827.709047101                3      285665           0
<weights>
-.11145E+08
-.12103E+08
-.99971E+07
-.14716E+08
-.80104E+07
-.91662E+07
-.13909E+08
-.11172E+08
-.11120E+08
-.10824E+08
-.10814E+08
-.10962E+08
-.11007E+08
-.10842E+08
-.10825E+08
-.11226E+08
-.11211E+08
-.11461E+08
-.11503E+08
-.11491E+08
-.11438E+08
-.11500E+08
-.11520E+08
-.11410E+08
-.11329E+08
-.11287E+08
-.11350E+08
-.11434E+08
-.11371E+08
-.11478E+08
-.11513E+08
-.11183E+08
-.11217E+08
-.11138E+08
-.11178E+08
-.11209E+08
-.11101E+08
-.11131E+08
-.11085E+08
-.11166E+08
-.11128E+08
-.11185E+08
-.11104E+08
-.11505E+08
-.10815E+08
</weights>
</event>
<event>
      6  10001 -1.11453E+07  8.94427E-01 -1.00000E+00  3.57664E-01
       2    -1     0     0   501     0  0.000000000E+00  0.000000000E+00  3.361990075E+02  3.361990075E+02  0.000000000E+00  0.00000E+00  9.000E+00
      21    -1     0     0   502   501  0.000000000E+00  0.000000000E+00 -1.174073327E-02  1.174073327E-02  0.000000000E+00  0.00000E+00  9.000E+00
      23     2     1     2     0     0  3.792162537E-01 -1.010253660E+00  1.906037005E+02  1.906231828E+02  2.502556904E+00  0.00000E+00  9.000E+00
      11     1     3     3     0     0  8.506283104E-01 -1.491530522E+00  8.503942917E+01  8.505676190E+01  5.110000000E-04  0.00000E+00  9.000E+00
     -11     1     3     3     0     0 -4.714120567E-01  4.812768619E-01  1.055642713E+02  1.055664209E+02  5.110000000E-04  0.00000E+00  9.000E+00
       2     1     1     2   502     0 -3.792162537E-01  1.010253660E+00  1.455835663E+02  1.455875654E+02  0.000000000E+00  0.00000E+00  9.000E+00
#rwgt            1          24  -14081652.851059107                3      286852           0
<weights>
-.11145E+08
-.11992E+08
-.10117E+08
-.14583E+08
-.81065E+07
-.91653E+07
-.13909E+08
-.11177E+08
-.11114E+08
-.10834E+08
-.10830E+08
-.10966E+08
-.11015E+08
-.10854E+08
-.10839E+08
-.11224E+08
-.11202E+08
-.11447E+08
-.11484E+08
-.11473E+08
-.11424E+08
-.11482E+08
-.11504E+08
-.11386E+08
-.11328E+08
-.11283E+08
-.11313E+08
-.11418E+08
-.11357E+08
-.11458E+08
-.11495E+08
-.11178E+08
-.11216E+08
-.11139E+08
-.11175E+08
-.11213E+08
-.11096E+08
-.11112E+08
-.11103E+08
-.11161E+08
-.11132E+08
-.11182E+08
-.11107E+08
-.11489E+08
-.10828E+08
</weights>
</event>
<event>
      7  10001  1.11453E+07  8.94427E-01 -1.00000E+00  6.07649E-01
      -4    -1     0     0     0   502  0.000000000E+00  0.000000000E+00  3.138200278E+01  3.138200278E+01  0.000000000E+00  0.00000E+00  9.000E+00
      -3    -1     0     0     0   501  0.000000000E+00  0.000000000E+00 -5.101884415E+00  5.101884415E+00  0.000000000E+00  0.00000E+00  9.000E+00
      23     2     1     2     0     0 -1.471271998E+00 -6.206239630E-01 -4.202014151E+00  4.892727879E+00  1.931850868E+00  0.00000E+00  9.000E+00
      11     1     3     3     0     0 -1.239130120E+00  8.227270640E-03 -4.007556384E+00  4.194760967E+00  5.110000000E-04  0.00000E+00  9.000E+00
     -11     1     3     3     0     0 -2.321418780E-01 -6.288512337E-01 -1.944577677E-01  6.979669120E-01  5.110000000E-04  0.00000E+00  9.000E+00
      -4     1     1     2     0   501  2.193134282E+00  5.375081113E-01  3.073797549E+01  3.082080288E+01  0.000000000E+00  0.00000E+00  9.000E+00
      -3     1     1     2     0   502 -7.218622845E-01  8.311585178E-02 -2.558429786E-01  7.703564320E-01  0.000000000E+00  0.00000E+00  9.000E+00
#rwgt            2          36   7270.9666873601336                3      288401           0
<weights>
0.11145E+08
0.10979E+08
0.11093E+08
0.13343E+08
0.88886E+07
0.91702E+07
0.13910E+08
0.11202E+08
0.11085E+08
0.10839E+08
0.10876E+08
0.11049E+08
0.10943E+08
0.10872E+08
0.10871E+08
0.11347E+08
0.10948E+08
0.11277E+08
0.11669E+08
0.11644E+08
0.11258E+08
0.11422E+08
0.11510E+08
0.11707E+08
0.11018E+08
0.10520E+08
0.12585E+08
0.11125E+08
0.11689E+08
0.11385E+08
0.11481E+08
0.11202E+08
0.11181E+08
0.11158E+08
0.11153E+08
0.11257E+08
0.11048E+08
0.11060E+08
0.11136E+08
0.11161E+08
0.11129E+08
0.11198E+08
0.11090E+08
0.11459E+08
0.10855E+08
</weights>
</event>
<event>
      6  10001 -1.11453E+07  8.94427E-01 -1.00000E+00  1.59970E-01
      21    -1     0     0   502   501  0.000000000E+00  0.000000000E+00  8.484778735E-03  8.484778735E-03  0.000000000E+00  0.00000E+00  9.000E+00
       2    -1     0     0   501     0  0.000000000E+00  0.000000000E+00 -2.333912690E+02  2.333912690E+02  0.000000000E+00  0.00000E+00  9.000E+00
      23     2     1     2     0     0  1.899915675E-01 -3.851027063E-01 -2.120652256E+02  2.120778705E+02  2.275708032E+00  0.00000E+00  9.000E+00
      11     1     3     3     0     0 -4.456421693E-01 -4.033425514E-01 -1.554513166E+01  1.555674776E+01  5.110000000E-04  0.00000E+00  9.000E+00
     -11     1     3     3     0     0  6.356337368E-01  1.823984503E-02 -1.965200940E+02  1.965211228E+02  5.110000000E-04  0.00000E+00  9.000E+00
       2     1     1     2   502     0 -1.899915675E-01  3.851027063E-01 -2.131755859E+01  2.132188324E+01  0.000000000E+00  0.00000E+00  9.000E+00
#rwgt            1          17  -36828399.992880143                3      294903           0
<weights>
-.11145E+08
-.11115E+08
-.11462E+08
-.13509E+08
-.91841E+07
-.91702E+07
-.13910E+08
-.11128E+08
-.11161E+08
-.11173E+08
-.11167E+08
-.11086E+08
-.11221E+08
-.11169E+08
-.11168E+08
-.11318E+08
-.10876E+08
-.11266E+08
-.10918E+08
-.10892E+08
-.11278E+08
-.11103E+08
-.11144E+08
-.11164E+08
-.11073E+08
-.11152E+08
-.11131E+08
-.10995E+08
-.11251E+08
-.11098E+08
-.11144E+08
-.11052E+08
-.11230E+08
-.11263E+08
-.10988E+08
-.11135E+08
-.11151E+08
-.11171E+08
-.11120E+08
-.11173E+08
-.11118E+08
-.11161E+08
-.11128E+08
-.11118E+08
-.11171E+08
</weights>
</event>
<event>
      7  10001  1.11453E+07  9.54545E-01 -1.00000E+00  5.80900E-01
      -1    -1     0     0     0   502  0.000000000E+00  0.000000000E+00  1.535620391E-01  1.535620391E-01  0.000000000E+00  0.00000E+00  9.000E+00
       2    -1     0     0   502     0  0.000000000E+00  0.000000000E+00 -2.732600187E+02  2.732600187E+02  0.000000000E+00  0.00000E+00  9.000E+00
      23     2     1     2     0     0 -8.642316554E-01  9.849181848E-01 -1.476367447E+02  1.476502388E+02  1.505883357E+00  0.00000E+00  9.000E+00
      11     1     3     3     0     0  5.788981086E-03  1.077930703E+00 -6.595941194E+01  6.596821956E+01  5.110000000E-04  0.00000E+00  9.000E+00
     -11     1     3     3     0     0 -8.700206364E-01 -9.301251867E-02 -8.167733275E+01  8.168201927E+01  5.110000000E-04  0.00000E+00  9.000E+00
      -1     1     1     2     0   501  8.854886743E-01 -3.060983996E-02 -1.208682739E+00  1.498646429E+00  0.000000000E+00  0.00000E+00  9.000E+00
       2     1     1     2   501     0 -2.125701891E-02 -9.543083449E-01 -1.242610293E+02  1.242646955E+02  0.000000000E+00  0.00000E+00  9.000E+00
#rwgt            2         144   179179.80417096696                3      297222           0
<weights>
0.11145E+08
0.10611E+08
0.11669E+08
0.12896E+08
0.93496E+07
0.91702E+07
0.13910E+08
0.11127E+08
0.11162E+08
0.11171E+08
0.11163E+08
0.11062E+08
0.11246E+08
0.11166E+08
0.11164E+08
0.11331E+08
0.10861E+08
0.11316E+08
0.10859E+08
0.10825E+08
0.11334E+08
0.11104E+08
0.11153E+08
0.11139E+08
0.11101E+08
0.11190E+08
0.11109E+08
0.10938E+08
0.11327E+08
0.11091E+08
0.11155E+08
0.11037E+08
0.11247E+08
0.11317E+08
0.10922E+08
0.11129E+08
0.11158E+08
0.11168E+08
0.11123E+08
0.11192E+08
0.11101E+08
0.11154E+08
0.11136E+08
0.11122E+08
0.11168E+08
</weights>
</event>
<event>
      6  10001 -1.11453E+07  8.94427E-01 -1.00000E+00  1.89092E-01
      21    -1     0     0   502   501  0.000000000E+00  0.000000000E+00  1.807772880E-02  1.807772880E-02  0.000000000E+00  0.00000E+00  9.000E+00
       2    -1     0     0   501     0  0.000000000E+00  0.000000000E+00 -3.140899784E+01  3.140899784E+01  0.000000000E+00  0.00000E+00  9.000E+00
      23     2     1     2     0     0  2.275189964E-01 -2.030589488E-01 -2.781164828E+01  2.783483607E+01  1.094221520E+00  0.00000E+00  9.000E+00
      11     1     3     3     0     0 -3.172507699E-02 -1.092641653E-01 -2.859112559E-01  3.077184520E-01  5.110000000E-04  0.00000E+00  9.000E+00
     -11     1     3     3     0     0  2.592440734E-01 -9.379478350E-02 -2.752573703E+01  2.752711761E+01  5.110000000E-04  0.00000E+00  9.000E+00
       2     1     1     2   502     0 -2.275189964E-01  2.030589488E-01 -3.579271831E+00  3.592239506E+00  0.000000000E+00  0.00000E+00  9.000E+00
#rwgt            1          17  -6050434.4015441705                3      298746           0
<weights>
-.11145E+08
-.12626E+08
-.95401E+07
-.15345E+08
-.76440E+07
-.91702E+07
-.13910E+08
-.11197E+08
-.11093E+08
-.11015E+08
-.11060E+08
-.11120E+08
-.11033E+08
-.11049E+08
-.11059E+08
-.11086E+08
-.11251E+08
-.11127E+08
-.11371E+08
-.11380E+08
-.11115E+08
-.11233E+08
-.11241E+08
-.11239E+08
-.11178E+08
-.11178E+08
-.11126E+08
-.11361E+08
-.10964E+08
-.11223E+08
-.11211E+08
-.11144E+08
-.11172E+08
-.11075E+08
-.11250E+08
-.11112E+08
-.11182E+08
-.10991E+08
-.11283E+08
-.11083E+08
-.11196E+08
-.11211E+08
-.11075E+08
-.11249E+08
-.11043E+08
</weights>
</event>
<event>
      6  10001 -1.11453E+07  8.94427E-01 -1.00000E+00  2.93093E-01
       2    -1     0     0   501     0  0.000000000E+00  0.000000000E+00  2.858492943E+02  2.858492943E+02  0.000000000E+00  0.00000E+00  9.000E+00
      21    -1     0     0   502   501  0.000000000E+00  0.000000000E+00 -1.847720117E-02  1.847720117E-02  0.000000000E+00  0.00000E+00  9.000E+00
      23     2     1     2     0     0 -2.087160288E-01 -1.277833745E+00  2.578833781E+02  2.578903562E+02  1.386610576E+00  0.00000E+00  9.000E+00
      11     1     3     3     0     0 -3.813874343E-01 -1.459686397E+00  2.443330150E+02  2.443376728E+02  5.110000000E-04  0.00000E+00  9.000E+00
     -11     1     3     3     0     0  1.726714054E-01  1.818526523E-01  1.355036311E+01  1.355268336E+01  5.110000000E-04  0.00000E+00  9.000E+00
       2     1     1     2   502     0  2.087160288E-01  1.277833745E+00  2.794743894E+01  2.797741527E+01  0.000000000E+00  0.00000E+00  9.000E+00
#rwgt            1          24  -30497489.787723884                3      300231           0
<weights>
-.11145E+08
-.12315E+08
-.97669E+07
-.14977E+08
-.78261E+07
-.91645E+07
-.13909E+08
-.11172E+08
-.11119E+08
-.10824E+08
-.10814E+08
-.10962E+08
-.11007E+08
-.10842E+08
-.10825E+08
-.11226E+08
-.11210E+08
-.11461E+08
-.11502E+08
-.11490E+08
-.11438E+08
-.11500E+08
-.11519E+08
-.11409E+08
-.11329E+08
-.11287E+08
-.11347E+08
-.11434E+08
-.11371E+08
-.11478E+08
-.11512E+08
-.11183E+08
-.11217E+08
-.11138E+08
-.11177E+08
-.11209E+08
-.11101E+08
-.11131E+08
-.11085E+08
-.11166E+08
-.11128E+08
-.11185E+08
-.11104E+08
-.11504E+08
-.10815E+08
</weights>
</event>
<event>
      6  10001 -1.11453E+07  8.94427E-01 -1.00000E+00  3.55438E-01
       2    -1     0     0   501     0  0.000000000E+00  0.000000000E+00  4.386854935E+02  4.386854935E+02  0.000000000E+00  0.00000E+00  9.000E+00
      21    -1     0     0   502   501  0.000000000E+00  0.000000000E+00 -3.881828395E-03  3.881828395E-03  0.000000000E+00  0.00000E+00  9.000E+00
      23     2     1     2     0     0  5.886520913E-01  5.031703439E-01  3.850036714E+02  3.850058493E+02  1.037948050E+00  0.00000E+00  9.000E+00
      11     1     3     3     0     0 -1.025947667E-01  2.567897926E-01  2.680695443E+01  2.680838064E+01  5.110000000E-04  0.00000E+00  9.000E+00
     -11     1     3     3     0     0  6.912468580E-01  2.463805513E-01  3.581967169E+02  3.581974686E+02  5.110000000E-04  0.00000E+00  9.000E+00
       2     1     1     2   502     0 -5.886520913E-01 -5.031703439E-01  5.367794032E+01  5.368352605E+01  0.000000000E+00  0.00000E+00  9.000E+00
#rwgt            1          24  -32912134.022030309                3      301086           0
<weights>
-.11145E+08
-.12635E+08
-.93515E+07
-.15367E+08
-.74931E+07
-.91649E+07
-.13909E+08
-.11178E+08
-.11114E+08
-.10885E+08
-.10892E+08
-.10987E+08
-.11049E+08
-.10912E+08
-.10901E+08
-.11218E+08
-.11169E+08
-.11386E+08
-.11405E+08
-.11395E+08
-.11369E+08
-.11411E+08
-.11425E+08
-.11331E+08
-.11296E+08
-.11249E+08
-.11284E+08
-.11353E+08
-.11311E+08
-.11385E+08
-.11421E+08
-.11164E+08
-.11209E+08
-.11142E+08
-.11166E+08
-.11212E+08
-.11094E+08
-.11077E+08
-.11166E+08
-.11143E+08
-.11148E+08
-.11174E+08
-.11115E+08
-.11422E+08
-.10887E+08
</weights>
</event>
<event>
      6  10001 -1.11453E+07  8.94427E-01 -1.00000E+00  4.04369E-01
      21    -1     0     0   502   501  0.000000000E+00  0.000000000E+00  7.788202806E-03  7.788202806E-03  0.000000000E+00  0.00000E+00  9.000E+00
       2    -1     0     0   501     0  0.000000000E+00  0.000000000E+00 -4.155077731E+02  4.155077731E+02  0.000000000E+00  0.00000E+00  9.000E+00
      23     2     1     2     0     0 -9.522201248E-01  7.166132772E-01 -2.337416923E+02  2.337533618E+02  2.008769093E+00  0.00000E+00  9.000E+00
      11     1     3     3     0     0 -4.187239502E-01  1.330674512E+00 -1.075338014E+02  1.075428495E+02  5.110000000E-04  0.00000E+00  9.000E+00
     -11     1     3     3     0     0 -5.334961745E-01 -6.140612352E-01 -1.262078909E+02  1.262105123E+02  5.110000000E-04  0.00000E+00  9.000E+00
       2     1     1     2   502     0  9.522201248E-01 -7.166132772E-01 -1.817582926E+02  1.817621996E+02  0.000000000E+00  0.00000E+00  9.000E+00
#rwgt            1          17  -10625827.933152949                3      303895           0
<weights>
-.11145E+08
-.11718E+08
-.10411E+08
-.14242E+08
-.83421E+07
-.91702E+07
-.13910E+08
-.11128E+08
-.11161E+08
-.11167E+08
-.11155E+08
-.11009E+08
-.11302E+08
-.11159E+08
-.11156E+08
-.11317E+08
-.10887E+08
-.11425E+08
-.10735E+08
-.10679E+08
-.11457E+08
-.11106E+08
-.11168E+08
-.11076E+08
-.11172E+08
-.11290E+08
-.11051E+08
-.10808E+08
-.11500E+08
-.11075E+08
-.11179E+08
-.11021E+08
-.11267E+08
-.11450E+08
-.10765E+08
-.11108E+08
-.11178E+08
-.11155E+08
-.11140E+08
-.11234E+08
-.11065E+08
-.11140E+08
-.11151E+08
-.11129E+08
-.11161E+08
</weights>
</event>
<event>
      6  10001  1.11453E+07  8.94427E-01 -1.00000E+00  5.96173E-01
      21    -1     0     0   502   501  0.000000000E+00  0.000000000E+00  8.590544385E-02  8.590544385E-02  0.000000000E+00  0.00000E+00  9.000E+00
      -4    -1     0     0     0   502  0.000000000E+00  0.000000000E+00 -3.158909621E+01  3.158909621E+01  0.000000000E+00  0.00000E+00  9.000E+00
      23     2     1     2     0     0  3.012589569E-01  4.943656060E-01 -3.029247776E+01  3.033299558E+01  1.456453875E+00  0.00000E+00  9.000E+00
      11     1     3     3     0     0 -4.308408531E-01  4.093279600E-01 -6.004392038E+00  6.033729960E+00  5.110000000E-04  0.00000E+00  9.000E+00
     -11     1     3     3     0     0  7.320998100E-01  8.503764599E-02 -2.428808572E+01  2.429926562E+01  5.110000000E-04  0.00000E+00  9.000E+00
      -4     1     1     2     0   501 -3.012589569E-01 -4.943656060E-01 -1.210713009E+00  1.342006073E+00  0.000000000E+00  0.00000E+00  9.000E+00
#rwgt            1          12   973176.93198460154                3      304989           0
<weights>
0.11145E+08
0.15730E+08
0.67699E+07
0.13842E+08
0.84609E+07
0.12544E+08
0.87306E+07
0.11335E+08
0.10956E+08
0.10560E+08
0.10698E+08
0.10803E+08
0.10990E+08
0.10647E+08
0.10688E+08
0.11229E+08
0.11252E+08
0.11570E+08
0.11677E+08
0.11670E+08
0.11543E+08
0.11598E+08
0.11737E+08
0.11281E+08
0.11646E+08
0.11578E+08
0.10968E+08
0.11567E+08
0.11320E+08
0.11497E+08
0.11628E+08
0.11092E+08
0.11346E+08
0.11188E+08
0.11119E+08
0.11445E+08
0.10883E+08
0.10604E+08
0.11563E+08
0.11127E+08
0.11165E+08
0.11152E+08
0.11140E+08
0.11687E+08
0.10633E+08
</weights>
</event>
<event>
      7  10001  1.11453E+07  2.86614E+00 -1.00000E+00  2.98096E-01
      21    -1     0     0   511   501  0.000000000E+00  0.000000000E+00  1.966115539E+02  1.966115539E+02  0.000000000E+00  0.00000E+00  9.000E+00
       4    -1     0     0   501     0  0.000000000E+00  0.000000000E+00 -2.569426796E+00  2.569426796E+00  0.000000000E+00  0.00000E+00  9.000E+00
      23     2     1     2     0     0  2.629225496E-01 -1.771365469E+00  7.405043196E-01  3.061180095E+00  2.369728473E+00  0.00000E+00  9.000E+00
      11     1     3     3     0     0  1.242157714E+00 -1.235271976E+00  8.353345462E-01  1.940782499E+00  5.110000000E-04  0.00000E+00  9.000E+00
     -11     1     3     3     0     0 -9.792351646E-01 -5.360934928E-01 -9.483022663E-02  1.120397596E+00  5.110000000E-04  0.00000E+00  9.000E+00
       4     1     1     2   502     0  6.391771037E-01 -9.491129290E-01 -1.164468051E+00  1.632589527E+00  0.000000000E+00  0.00000E+00  9.000E+00
      21     1     1     2   511   502 -9.020996533E-01  2.720478398E+00  1.944660908E+02  1.944872111E+02  0.000000000E+00  0.00000E+00  9.000E+00
#rwgt            1          19   34426.676842273424                3      315618           0
<weights>
0.11145E+08
0.16524E+08
0.62424E+07
0.11651E+08
0.98448E+07
0.14556E+08
0.56420E+07
0.11202E+08
0.11081E+08
0.10640E+08
0.10564E+08
0.10863E+08
0.10906E+08
0.10632E+08
0.10585E+08
0.11266E+08
0.11332E+08
0.11733E+08
0.11723E+08
0.11723E+08
0.11684E+08
0.11793E+08
0.11786E+08
0.11530E+08
0.11486E+08
0.11502E+08
0.11092E+08
0.11732E+08
0.11520E+08
0.11786E+08
0.11803E+08
0.11261E+08
0.11226E+08
0.11104E+08
0.11235E+08
0.11260E+08
0.11055E+08
0.11349E+08
0.10812E+08
0.11239E+08
0.11067E+08
0.11199E+08
0.11090E+08
0.11763E+08
0.10587E+08
</weights>
</event>
<event>
      6  10001 -1.11453E+07  8.94427E-01 -1.00000E+00  1.54936E-01
      21    -1     0     0   502   501  0.000000000E+00  0.000000000E+00  7.531260493E-03  7.531260493E-03  0.000000000E+00  0.00000E+00  9.000E+00
      -4    -1     0     0     0   502  0.000000000E+00  0.000000000E+00 -7.363092595E+01  7.363092595E+01  0.000000000E+00  0.00000E+00  9.000E+00
      23     2     1     2     0     0 -3.172884028E-01  1.106255205E-01 -5.696208428E+01  5.697375876E+01  1.103282197E+00  0.00000E+00  9.000E+00
      11     1     3     3     0     0  1.987203680E-01  3.525134693E-01 -4.010980567E+01  4.011184696E+01  5.110000000E-04  0.00000E+00  9.000E+00
     -11     1     3     3     0     0 -5.160087708E-01 -2.418879488E-01 -1.685227862E+01  1.686191180E+01  5.110000000E-04  0.00000E+00  9.000E+00
      -4     1     1     2     0   501  3.172884028E-01 -1.106255205E-01 -1.666131041E+01  1.666469845E+01  0.000000000E+00  0.00000E+00  9.000E+00
#rwgt            1          12  -2076764.3761543171                3      319311           0
<weights>
-.11145E+08
-.12479E+08
-.96712E+07
-.15166E+08
-.77491E+07
-.91702E+07
-.13910E+08
-.11199E+08
-.11092E+08
-.11071E+08
-.11139E+08
-.11006E+08
-.11263E+08
-.11153E+08
-.11155E+08
-.11163E+08
-.11060E+08
-.11127E+08
-.11074E+08
-.11068E+08
-.11135E+08
-.11114E+08
-.11084E+08
-.11116E+08
-.11139E+08
-.11146E+08
-.11125E+08
-.11119E+08
-.11068E+08
-.11065E+08
-.11109E+08
-.11088E+08
-.11195E+08
-.11164E+08
-.11120E+08
-.11268E+08
-.11032E+08
-.10820E+08
-.11537E+08
-.11022E+08
-.11260E+08
-.11096E+08
-.11198E+08
-.11155E+08
-.11116E+08
</weights>
</event>
<event>
      6  10001 -1.11453E+07  8.94427E-01 -1.00000E+00  2.58395E-01
       2    -1     0     0   501     0  0.000000000E+00  0.000000000E+00  6.370919325E+02  6.370919325E+02  0.000000000E+00  0.00000E+00  9.000E+00
      21    -1     0     0   502   501  0.000000000E+00  0.000000000E+00 -1.031111132E-02  1.031111132E-02  0.000000000E+00  0.00000E+00  9.000E+00
      23     2     1     2     0     0 -3.504615386E-01  4.344640223E-01  6.285430251E+02  6.285454213E+02  1.643348658E+00  0.00000E+00  9.000E+00
      11     1     3     3     0     0 -6.662686168E-01  6.964877378E-01  5.755609961E+02  5.755618031E+02  5.110000000E-04  0.00000E+00  9.000E+00
     -11     1     3     3     0     0  3.158070782E-01 -2.620237156E-01  5.298202906E+01  5.298361817E+01  5.110000000E-04  0.00000E+00  9.000E+00
       2     1     1     2   502     0  3.504615386E-01 -4.344640223E-01  8.538596219E+00  8.556822288E+00  0.000000000E+00  0.00000E+00  9.000E+00
#rwgt            1          24  -128102156.09441088                3      320061           0
<weights>
-.11145E+08
-.11842E+08
-.10202E+08
-.14405E+08
-.81751E+07
-.91622E+07
-.13909E+08
-.11173E+08
-.11118E+08
-.10828E+08
-.10820E+08
-.10963E+08
-.11010E+08
-.10846E+08
-.10830E+08
-.11225E+08
-.11208E+08
-.11456E+08
-.11496E+08
-.11485E+08
-.11433E+08
-.11494E+08
-.11514E+08
-.11402E+08
-.11328E+08
-.11286E+08
-.11340E+08
-.11428E+08
-.11366E+08
-.11471E+08
-.11506E+08
-.11182E+08
-.11217E+08
-.11138E+08
-.11177E+08
-.11210E+08
-.11099E+08
-.11125E+08
-.11091E+08
-.11164E+08
-.11129E+08
-.11184E+08
-.11105E+08
-.11499E+08
-.10819E+08
</weights>
</event>
<event>
      6  10001 -1.11453E+07  8.94427E-01 -1.00000E+00  4.28038E-01
      21    -1     0     0   502   501  0.000000000E+00  0.000000000E+00  4.264097665E-01  4.264097665E-01  0.000000000E+00  0.00000E+00  9.000E+00
       4    -1     0     0   501     0  0.000000000E+00  0.000000000E+00 -1.183565302E+00  1.183565302E+00  0.000000000E+00  0.00000E+00  9.000E+00
      23     2     1     2     0     0 -2.085313237E-01  1.959563738E-01 -5.033844934E-01  1.227504213E+00  1.082352268E+00  0.00000E+00  9.000E+00
      11     1     3     3     0     0 -1.593429413E-01  6.371963996E-01 -4.085557653E-01  7.735163212E-01  5.110000000E-04  0.00000E+00  9.000E+00
     -11     1     3     3     0     0 -4.918838235E-02 -4.412400258E-01 -9.482872810E-02  4.539878921E-01  5.110000000E-04  0.00000E+00  9.000E+00
       4     1     1     2   502     0  2.085313237E-01 -1.959563738E-01 -2.537710425E-01  3.824708556E-01  0.000000000E+00  0.00000E+00  9.000E+00
#rwgt            1          19  -439805.57651443733                3      320599           0
<weights>
-.11145E+08
-.90252E+07
-.12245E+08
-.17143E+08
-.66148E+07
-.54108E+07
-.19681E+08
-.11207E+08
-.11083E+08
-.10962E+08
-.11014E+08
-.11020E+08
-.11112E+08
-.11003E+08
-.11016E+08
-.11201E+08
-.11111E+08
-.11264E+08
-.11279E+08
-.11274E+08
-.11256E+08
-.11265E+08
-.11310E+08
-.11176E+08
-.11284E+08
-.11211E+08
-.11122E+08
-.11223E+08
-.11208E+08
-.11224E+08
-.11278E+08
-.11120E+08
-.11209E+08
-.11156E+08
-.11138E+08
-.11237E+08
-.11064E+08
-.10910E+08
-.11322E+08
-.11105E+08
-.11181E+08
-.11156E+08
-.11134E+08
-.11302E+08
-.10993E+08
</weights>
</event>
<event>
      6  10001  1.11453E+07  8.94427E-01 -1.00000E+00  5.99708E-01
       1    -1     0     0   501     0  0.000000000E+00  0.000000000E+00  1.554791041E+01  1.554791041E+01  0.000000000E+00  0.00000E+00  9.000E+00
      -1    -1     0     0     0   502  0.000000000E+00  0.000000000E+00 -8.923075178E-02  8.923075178E-02  0.000000000E+00  0.00000E+00  9.000E+00
      23     2     1     2     0     0  1.594564486E-01  7.075328604E-01  1.304388858E+01  1.311578339E+01  1.163922378E+00  0.00000E+00  9.000E+00
      11     1     3     3     0     0  6.387867718E-01  6.079114606E-01  8.410830332E+00  8.456930414E+00  5.110000000E-04  0.00000E+00  9.000E+00
     -11     1     3     3     0     0 -4.793303232E-01  9.962139978E-02  4.633058253E+00  4.658852972E+00  5.110000000E-04  0.00000E+00  9.000E+00
      21     1     1     2   501   502 -1.594564486E-01 -7.075328604E-01  2.414791078E+00  2.521357781E+00  4.214684851E-08  0.00000E+00  9.000E+00
#rwgt            1          21   102014.52348891704                3      324499           0
<weights>
0.11145E+08
0.12644E+08
0.96571E+07
0.12707E+08
0.92896E+07
0.10874E+08
0.11294E+08
0.10975E+08
0.11378E+08
0.10803E+08
0.10763E+08
0.10967E+08
0.10959E+08
0.10811E+08
0.10778E+08
0.11197E+08
0.11284E+08
0.11516E+08
0.11538E+08
0.11519E+08
0.11493E+08
0.11561E+08
0.11558E+08
0.11505E+08
0.11289E+08
0.11329E+08
0.11342E+08
0.11504E+08
0.11377E+08
0.11549E+08
0.11561E+08
0.11175E+08
0.11243E+08
0.11135E+08
0.11189E+08
0.11065E+08
0.11264E+08
0.11201E+08
0.11019E+08
0.11178E+08
0.11115E+08
0.11212E+08
0.11075E+08
0.11548E+08
0.10778E+08
</weights>
</event>
<event>
      7  10001  1.11453E+07  3.56447E+00 -1.00000E+00  2.72275E-01
      21    -1     0     0   502   501  0.000000000E+00  0.000000000E+00  1.464113103E+01  1.464113103E+01  0.000000000E+00  0.00000E+00  9.000E+00
       2    -1     0     0   501     0  0.000000000E+00  0.000000000E+00 -3.790480991E-01  3.790480991E-01  0.000000000E+00  0.00000E+00  9.000E+00
      23     2     1     2     0     0 -6.533200631E-02 -2.446172205E-01  4.836281024E-01  1.146742195E+00  1.008471945E+00  0.00000E+00  9.000E+00
      11     1     3     3     0     0 -2.370858487E-01 -1.141944579E-01 -2.615262854E-01  3.710071872E-01  5.110000000E-04  0.00000E+00  9.000E+00
     -11     1     3     3     0     0  1.717538424E-01 -1.304227626E-01  7.451543877E-01  7.757350076E-01  5.110000000E-04  0.00000E+00  9.000E+00
       2     1     1     2   511     0  1.098861749E-01 -4.032567181E-01  1.074987355E+00  1.153381448E+00  0.000000000E+00  0.00000E+00  9.000E+00
      21     1     1     2   502   511 -4.455416859E-02  6.478739386E-01  1.270346748E+01  1.272005549E+01  2.384185791E-07  0.00000E+00  9.000E+00
#rwgt            2         189   566789.42826206889                3      328113           0
<weights>
0.11145E+08
0.11310E+08
0.10747E+08
0.13746E+08
0.86111E+07
0.91702E+07
0.13910E+08
0.11071E+08
0.11238E+08
0.10832E+08
0.10811E+08
0.10975E+08
0.10990E+08
0.10846E+08
0.10823E+08
0.11197E+08
0.11255E+08
0.11470E+08
0.11481E+08
0.11470E+08
0.11448E+08
0.11505E+08
0.11511E+08
0.11398E+08
0.11316E+08
0.11325E+08
0.11183E+08
0.11462E+08
0.11329E+08
0.11487E+08
0.11507E+08
0.11169E+08
0.11232E+08
0.11136E+08
0.11183E+08
0.11116E+08
0.11202E+08
0.11142E+08
0.11077E+08
0.11164E+08
0.11128E+08
0.11200E+08
0.11088E+08
0.11502E+08
0.10818E+08
</weights>
</event>
<event>
      6  10001 -1.11453E+07  8.94427E-01 -1.00000E+00  5.54050E-01
      -2    -1     0     0     0   502  0.000000000E+00  0.000000000E+00  3.936583791E-03  3.936583791E-03  0.000000000E+00  0.00000E+00  9.000E+00
       2    -1     0     0   501     0  0.000000000E+00  0.000000000E+00 -2.208827868E+02  2.208827868E+02  0.000000000E+00  0.00000E+00  9.000E+00
      23     2     1     2     0     0  5.470231895E-01  2.025339301E-01 -1.706329579E+02  1.706374453E+02  1.091402219E+00  0.00000E+00  9.000E+00
      11     1     3     3     0     0 -5.796012632E-02  4.966844945E-01 -1.010053338E+02  1.010065716E+02  5.110000000E-04  0.00000E+00  9.000E+00
     -11     1     3     3     0     0  6.049833158E-01 -2.941505644E-01 -6.962762405E+01  6.963087362E+01  5.110000000E-04  0.00000E+00  9.000E+00
      21     1     1     2   501   502 -5.470231895E-01 -2.025339301E-01 -5.024589240E+01  5.024927817E+01  0.000000000E+00  0.00000E+00  9.000E+00
#rwgt            1           8  -376529.21638199029                3      328858           0
<weights>
-.11145E+08
-.13035E+08
-.90812E+07
-.15843E+08
-.72763E+07
-.91702E+07
-.13910E+08
-.11128E+08
-.11161E+08
-.11173E+08
-.11168E+08
-.11092E+08
-.11214E+08
-.11170E+08
-.11168E+08
-.11313E+08
-.10882E+08
-.11253E+08
-.10932E+08
-.10909E+08
-.11264E+08
-.11103E+08
-.11141E+08
-.11170E+08
-.11067E+08
-.11143E+08
-.11136E+08
-.11009E+08
-.11232E+08
-.11100E+08
-.11141E+08
-.11056E+08
-.11226E+08
-.11250E+08
-.11004E+08
-.11136E+08
-.11150E+08
-.11171E+08
-.11119E+08
-.11168E+08
-.11122E+08
-.11163E+08
-.11126E+08
-.11117E+08
-.11171E+08
</weights>
</event>
<event>
      7  10001  1.11453E+07  1.35368E+00 -1.00000E+00  4.58117E-01
      21    -1     0     0   502   511  0.000000000E+00  0.000000000E+00  3.723399716E+02  3.723399716E+02  0.000000000E+00  0.00000E+00  9.000E+00
      -1    -1     0     0     0   502  0.000000000E+00  0.000000000E+00 -2.014503849E-01  2.014503849E-01  0.000000000E+00  0.00000E+00  9.000E+00
      23     2     1     2     0     0 -8.730556136E-02 -2.301129633E-01  7.542306213E+00  7.827442098E+00  2.078916194E+00  0.00000E+00  9.000E+00
      11     1     3     3     0     0  9.830583407E-01 -9.580753891E-02  2.983759921E+00  3.142993210E+00  5.110000000E-04  0.00000E+00  9.000E+00
     -11     1     3     3     0     0 -1.070363902E+00 -1.343054244E-01  4.558546292E+00  4.684448888E+00  5.110000000E-04  0.00000E+00  9.000E+00
      -1     1     1     2     0   501 -1.145696745E+00 -3.285842610E-01  6.107657114E+00  6.222866227E+00  0.000000000E+00  0.00000E+00  9.000E+00
      21     1     1     2   501   511  1.233002307E+00  5.586972244E-01  3.584885579E+02  3.584911136E+02  0.000000000E+00  0.00000E+00  9.000E+00
#rwgt            1          15   113107.14585586607                3      328972           0
<weights>
0.11145E+08
0.14848E+08
0.78489E+07
0.10616E+08
0.10792E+08
0.14025E+08
0.64575E+07
0.10670E+08
0.11746E+08
0.10769E+08
0.10678E+08
0.10976E+08
0.10877E+08
0.10759E+08
0.10699E+08
0.11146E+08
0.11413E+08
0.11609E+08
0.11593E+08
0.11561E+08
0.11588E+08
0.11661E+08
0.11622E+08
0.11657E+08
0.11229E+08
0.11409E+08
0.11320E+08
0.11624E+08
0.11380E+08
0.11668E+08
0.11640E+08
0.11160E+08
0.11288E+08
0.11136E+08
0.11203E+08
0.10815E+08
0.11542E+08
0.11317E+08
0.10909E+08
0.11199E+08
0.11094E+08
0.11260E+08
0.11023E+08
0.11620E+08
0.10716E+08
</weights>
</event>
<event>
      7  10001 -1.11453E+07  1.30327E+00 -1.00000E+00  4.69833E-01
      21    -1     0     0   502   511  0.000000000E+00  0.000000000E+00  3.344876712E+01  3.344876712E+01  0.000000000E+00  0.00000E+00  9.000E+00
       2    -1     0     0   501     0  0.000000000E+00  0.000000000E+00 -1.970912454E+01  1.970912454E+01  0.000000000E+00  0.00000E+00  9.000E+00
      23     2     1     2     0     0 -9.596736411E-02  2.899398784E-01 -1.316630400E+01  1.321449451E+01  1.085370496E+00  0.00000E+00  9.000E+00
      11     1     3     3     0     0  3.406373380E-01  4.638416523E-01 -9.618237418E+00  9.635438452E+00  5.110000000E-04  0.00000E+00  9.000E+00
     -11     1     3     3     0     0 -4.366047021E-01 -1.739017739E-01 -3.548066583E+00  3.579056053E+00  5.110000000E-04  0.00000E+00  9.000E+00
       2     1     1     2   502     0  3.874536253E-01  9.803192480E-01 -6.463307987E+00  6.548701877E+00  0.000000000E+00  0.00000E+00  9.000E+00
      21     1     1     2   501   511 -2.914862612E-01 -1.270259126E+00  3.336925457E+01  3.339469528E+01  8.259061849E-07  0.00000E+00  9.000E+00
#rwgt            1          17  -840703.89528303524                3      336842           0
<weights>
-.11145E+08
-.10203E+08
-.11088E+08
-.20856E+08
-.40852E+07
-.38094E+07
-.22139E+08
-.11216E+08
-.11078E+08
-.11097E+08
-.11159E+08
-.11057E+08
-.11222E+08
-.11147E+08
-.11160E+08
-.11225E+08
-.10982E+08
-.11143E+08
-.11072E+08
-.11070E+08
-.11145E+08
-.11107E+08
-.11125E+08
-.11107E+08
-.11153E+08
-.11124E+08
-.11127E+08
-.11077E+08
-.11130E+08
-.11072E+08
-.11121E+08
-.11104E+08
-.11177E+08
-.11160E+08
-.11115E+08
-.11315E+08
-.10976E+08
-.10933E+08
-.11396E+08
-.11083E+08
-.11203E+08
-.11117E+08
-.11175E+08
-.11144E+08
-.11134E+08
</weights>
</event>
<event>
      6  10001 -1.11453E+07  8.94427E-01 -1.00000E+00  6.08009E-01
       2    -1     0     0   501     0  0.000000000E+00  0.000000000E+00  2.598734414E+02  2.598734414E+02  0.000000000E+00  0.00000E+00  9.000E+00
      21    -1     0     0   502   501  0.000000000E+00  0.000000000E+00 -4.429102061E-03  4.429102061E-03  0.000000000E+00  0.00000E+00  9.000E+00
      23     2     1     2     0     0  1.106592191E-02 -5.476117453E-01  1.979873276E+02  1.979937619E+02  1.499281538E+00  0.00000E+00  9.000E+00
      11     1     3     3     0     0 -4.250867568E-01 -8.809412924E-01  9.670481939E+01  9.670976605E+01  5.110000000E-04  0.00000E+00  9.000E+00
     -11     1     3     3     0     0  4.361526787E-01  3.333295471E-01  1.012825082E+02  1.012839958E+02  5.110000000E-04  0.00000E+00  9.000E+00
       2     1     1     2   502     0 -1.106592191E-02  5.476117453E-01  6.188168468E+01  6.188410862E+01  0.000000000E+00  0.00000E+00  9.000E+00
#rwgt            1          24  -11085409.110313999                3      341978           0
<weights>
-.11145E+08
-.12142E+08
-.99593E+07
-.14769E+08
-.79803E+07
-.91633E+07
-.13909E+08
-.11171E+08
-.11121E+08
-.10824E+08
-.10814E+08
-.10962E+08
-.11006E+08
-.10841E+08
-.10824E+08
-.11226E+08
-.11211E+08
-.11461E+08
-.11504E+08
-.11492E+08
-.11438E+08
-.11501E+08
-.11520E+08
-.11413E+08
-.11328E+08
-.11287E+08
-.11359E+08
-.11434E+08
-.11371E+08
-.11478E+08
-.11513E+08
-.11183E+08
-.11217E+08
-.11138E+08
-.11178E+08
-.11208E+08
-.11102E+08
-.11132E+08
-.11085E+08
-.11166E+08
-.11128E+08
-.11185E+08
-.11104E+08
-.11505E+08
-.10814E+08
</weights>
</event>
<event>
      6  10001 -1.11453E+07  8.94427E-01 -1.00000E+00  1.33943E-01
      21    -1     0     0   502   501  0.000000000E+00  0.000000000E+00  1.905860845E-02  1.905860845E-02  0.000000000E+00  0.00000E+00  9.000E+00
       2    -1     0     0   501     0  0.000000000E+00  0.000000000E+00 -7.624284442E+01  7.624284442E+01  0.000000000E+00  0.00000E+00  9.000E+00
      23     2     1     2     0     0 -2.477935573E-01 -1.336850405E-01 -4.561954281E+01  4.565636492E+01  1.811545745E+00  0.00000E+00  9.000E+00
      11     1     3     3     0     0  9.179105581E-03  7.494030249E-01 -1.148114785E+01  1.150558322E+01  5.110000000E-04  0.00000E+00  9.000E+00
     -11     1     3     3     0     0 -2.569726629E-01 -8.830880654E-01 -3.413839496E+01  3.415078169E+01  5.110000000E-04  0.00000E+00  9.000E+00
       2     1     1     2   502     0  2.477935573E-01  1.336850405E-01 -3.060424301E+01  3.060553812E+01  0.000000000E+00  0.00000E+00  9.000E+00
#rwgt            1          17  -1118969.8134468042                3      343430           0
<weights>
-.11145E+08
-.12453E+08
-.96986E+07
-.15135E+08
-.77710E+07
-.91702E+07
-.13910E+08
-.11166E+08
-.11125E+08
-.11127E+08
-.11153E+08
-.11162E+08
-.11095E+08
-.11150E+08
-.11153E+08
-.11148E+08
-.11108E+08
-.11070E+08
-.11210E+08
-.11220E+08
-.11063E+08
-.11134E+08
-.11126E+08
-.11234E+08
-.11041E+08
-.11074E+08
-.11176E+08
-.11249E+08
-.10950E+08
-.11141E+08
-.11119E+08
-.11134E+08
-.11150E+08
-.11078E+08
-.11231E+08
-.11130E+08
-.11156E+08
-.11090E+08
-.11212E+08
-.11089E+08
-.11190E+08
-.11199E+08
-.11088E+08
-.11141E+08
-.11144E+08
</weights>
</event>
<event>
      6  10001  1.11453E+07  8.94427E-01 -1.00000E+00  5.80274E-01
      -2    -1     0     0     0   502  0.000000000E+00  0.000000000E+00  6.769870876E-02  6.769870876E-02  0.000000000E+00  0.00000E+00  9.000E+00
       2    -1     0     0   501     0  0.000000000E+00  0.000000000E+00 -3.334877687E+01  3.334877687E+01  0.000000000E+00  0.00000E+00  9.000E+00
      23     2     1     2     0     0  2.281048513E-01 -1.514316575E-01 -3.301721697E+01  3.303623079E+01  1.086722185E+00  0.00000E+00  9.000E+00
      11     1     3     3     0     0  5.229953618E-01 -2.459598683E-02 -8.078966517E+00  8.095914362E+00  5.110000000E-04  0.00000E+00  9.000E+00
     -11     1     3     3     0     0 -2.948905105E-01 -1.268356707E-01 -2.493825045E+01  2.494031643E+01  5.110000000E-04  0.00000E+00  9.000E+00
      21     1     1     2   501   502 -2.281048513E-01  1.514316575E-01 -2.638611922E-01  3.802447881E-01  4.454799273E-08  0.00000E+00  9.000E+00
#rwgt            1           8   700647.31055697543                3      345153           0
<weights>
0.11145E+08
0.12233E+08
0.99807E+07
0.13050E+08
0.91291E+07
0.10368E+08
0.12071E+08
0.11209E+08
0.11082E+08
0.10983E+08
0.11035E+08
0.11134E+08
0.10983E+08
0.11019E+08
0.11031E+08
0.11050E+08
0.11317E+08
0.11113E+08
0.11461E+08
0.11476E+08
0.11097E+08
0.11265E+08
0.11273E+08
0.11266E+08
0.11196E+08
0.11187E+08
0.11126E+08
0.11437E+08
0.10914E+08
0.11257E+08
0.11233E+08
0.11157E+08
0.11168E+08
0.11047E+08
0.11292E+08
0.11088E+08
0.11207E+08
0.10976E+08
0.11289E+08
0.11077E+08
0.11199E+08
0.11232E+08
0.11053E+08
0.11280E+08
0.11014E+08
</weights>
</event>
<event>
      6  10001  1.11453E+07  8.94427E-01 -1.00000E+00  5.95170E-01
       2    -1     0     0   501     0  0.000000000E+00  0.000000000E+00  7.622191464E+01  7.622191464E+01  0.000000000E+00  0.00000E+00  9.000E+00
      -2    -1     0     0     0   502  0.000000000E+00  0.000000000E+00 -3.630991929E-02  3.630991929E-02  0.000000000E+00  0.00000E+00  9.000E+00
      23     2     1     2     0     0  4.739160250E-01  9.629513062E-01  4.136375628E+01  4.141984055E+01  1.868418021E+00  0.00000E+00  9.000E+00
      11     1     3     3     0     0  1.600924297E-01  1.227937012E+00  1.445381771E+01  1.450676758E+01  5.110000000E-04  0.00000E+00  9.000E+00
     -11     1     3     3     0     0  3.138235954E-01 -2.649857056E-01  2.690993857E+01  2.691307297E+01  5.110000000E-04  0.00000E+00  9.000E+00
      21     1     1     2   501   502 -4.739160250E-01 -9.629513062E-01  3.482184845E+01  3.483838402E+01  4.768371582E-07  0.00000E+00  9.000E+00
#rwgt            1          23   440871.70872923615                3      347147           0
<weights>
0.11145E+08
0.12790E+08
0.95900E+07
0.11632E+08
0.10091E+08
0.11738E+08
0.99685E+07
0.10859E+08
0.11555E+08
0.10789E+08
0.10730E+08
0.10968E+08
0.10931E+08
0.10790E+08
0.10747E+08
0.11185E+08
0.11323E+08
0.11544E+08
0.11581E+08
0.11553E+08
0.11522E+08
0.11599E+08
0.11585E+08
0.11597E+08
0.11258E+08
0.11336E+08
0.11490E+08
0.11542E+08
0.11397E+08
0.11594E+08
0.11594E+08
0.11176E+08
0.11254E+08
0.11132E+08
0.11197E+08
0.10996E+08
0.11345E+08
0.11248E+08
0.10976E+08
0.11187E+08
0.11107E+08
0.11225E+08
0.11062E+08
0.11577E+08
0.10753E+08
</weights>
</event>
<event>
      7  10001  1.11453E+07  1.42854E+00 -1.00000E+00  4.41629E-01
      -4    -1     0     0     0   502  0.000000000E+00  0.000000000E+00  7.810435221E-01  7.810435221E-01  0.000000000E+00  0.00000E+00  9.000E+00
       4    -1     0     0   501     0  0.000000000E+00  0.000000000E+00 -1.937945794E+00  1.937945794E+00  0.000000000E+00  0.00000E+00  9.000E+00
      23     2     1     2     0     0 -8.476077392E-02 -2.850182555E-01 -1.051091603E+00  1.674082633E+00  1.268597379E+00  0.00000E+00  9.000E+00
      11     1     3     3     0     0  9.041470140E-02 -4.087186023E-01  1.570234567E-01  4.470820296E-01  5.110000000E-04  0.00000E+00  9.000E+00
     -11     1     3     3     0     0 -1.751754753E-01  1.237003468E-01 -1.208115059E+00  1.227000604E+00  5.110000000E-04  0.00000E+00  9.000E+00
      21     1     1     2   511   502  1.880404329E-01  9.943610714E-03 -5.108884644E-01  5.444860906E-01  1.053671213E-08  0.00000E+00  9.000E+00
      21     1     1     2   501   511 -1.032796590E-01  2.750746448E-01  4.050777958E-01  5.004205920E-01  3.414284956E-08  0.00000E+00  9.000E+00
#rwgt            1           4   219060.01854859520                3      351378           0
<weights>
0.11153E+08
0.14451E+08
0.81913E+07
0.12420E+08
0.92493E+07
0.12320E+08
0.90950E+07
0.11211E+08
0.11089E+08
0.10728E+08
0.10685E+08
0.10910E+08
0.10965E+08
0.10733E+08
0.10701E+08
0.11258E+08
0.11284E+08
0.11623E+08
0.11621E+08
0.11619E+08
0.11585E+08
0.11669E+08
0.11676E+08
0.11450E+08
0.11443E+08
0.11435E+08
0.11112E+08
0.11611E+08
0.11451E+08
0.11653E+08
0.11680E+08
0.11233E+08
0.11230E+08
0.11125E+08
0.11218E+08
0.11261E+08
0.11066E+08
0.11246E+08
0.10949E+08
0.11213E+08
0.11103E+08
0.11196E+08
0.11108E+08
0.11655E+08
0.10696E+08
</weights>
</event>
<event>
      7  10001  1.11453E+07  6.12695E+00 -1.00000E+00  2.23010E-01
       2    -1     0     0   501     0  0.000000000E+00  0.000000000E+00  3.243050226E+02  3.243050226E+02  0.000000000E+00  0.00000E+00  9.000E+00
      21    -1     0     0   502   501  0.000000000E+00  0.000000000E+00 -5.421491355E-02  5.421491355E-02  0.000000000E+00  0.00000E+00  9.000E+00
      23     2     1     2     0     0  6.126199057E-01  1.972027469E+00  6.617666502E+01  6.623954582E+01  2.015500374E+00  0.00000E+00  9.000E+00
      11     1     3     3     0     0  1.330346253E+00  1.543865999E+00  4.409232218E+01  4.413939531E+01  5.110000000E-04  0.00000E+00  9.000E+00
     -11     1     3     3     0     0 -7.177263477E-01  4.281614705E-01  2.208434285E+01  2.210015051E+01  5.110000000E-04  0.00000E+00  9.000E+00
       2     1     1     2   512     0 -2.744790561E-01 -7.333051402E-01  7.232037589E+00  7.274300164E+00  0.000000000E+00  0.00000E+00  9.000E+00
      21     1     1     2   502   512 -3.381408495E-01 -1.238722329E+00  2.508421051E+02  2.508453916E+02  2.697398305E-06  0.00000E+00  9.000E+00
#rwgt            1          24   3347954.0669293529                3      352244           0
<weights>
0.11145E+08
0.12531E+08
0.95506E+07
0.12929E+08
0.92217E+07
0.10760E+08
0.11469E+08
0.11153E+08
0.11141E+08
0.10789E+08
0.10761E+08
0.10949E+08
0.10976E+08
0.10799E+08
0.10774E+08
0.11230E+08
0.11239E+08
0.11512E+08
0.11569E+08
0.11553E+08
0.11485E+08
0.11564E+08
0.11575E+08
0.11493E+08
0.11330E+08
0.11299E+08
0.11475E+08
0.11489E+08
0.11418E+08
0.11547E+08
0.11576E+08
0.11200E+08
0.11219E+08
0.11134E+08
0.11188E+08
0.11193E+08
0.11120E+08
0.11197E+08
0.11019E+08
0.11183E+08
0.11113E+08
0.11194E+08
0.11094E+08
0.11558E+08
0.10768E+08
</weights>
</event>
<event>
      6  10001 -1.11453E+07  8.94427E-01 -1.00000E+00  2.41647E-01
      -5    -1     0     0     0   502  0.000000000E+00  0.000000000E+00  1.663418408E+01  1.663418408E+01  0.000000000E+00  0.00000E+00  9.000E+00
      21    -1     0     0   502   501  0.000000000E+00  0.000000000E+00 -4.544230378E-02  4.544230378E-02  0.000000000E+00  0.00000E+00  9.000E+00
      23     2     1     2     0     0  2.938345794E-01  3.996016064E-01  1.223805487E+01  1.230075704E+01  1.136932921E+00  0.00000E+00  9.000E+00
      11     1     3     3     0     0 -3.553871575E-01  1.061629911E-01  7.527097616E+00  7.536230450E+00  5.110000000E-04  0.00000E+00  9.000E+00
     -11     1     3     3     0     0  6.492217369E-01  2.934386154E-01  4.710957253E+00  4.764526586E+00  5.110000000E-04  0.00000E+00  9.000E+00
      -5     1     1     2     0   501 -2.938345794E-01 -3.996016064E-01  4.350686904E+00  4.378869345E+00  0.000000000E+00  0.00000E+00  9.000E+00
#rwgt            1           1  -242643.57284257098                3      423363           0
<weights>
-.11145E+08
-.12309E+08
-.93961E+07
-.17721E+08
-.62672E+07
-.75661E+07
-.16372E+08
-.11192E+08
-.11093E+08
-.10981E+08
-.10993E+08
-.11023E+08
-.11113E+08
-.11003E+08
-.11002E+08
-.11203E+08
-.11132E+08
-.11292E+08
-.11277E+08
-.11276E+08
-.11281E+08
-.11296E+08
-.11316E+08
-.11197E+08
-.11266E+08
-.11228E+08
-.11051E+08
-.11261E+08
-.11226E+08
-.11272E+08
-.11304E+08
-.11149E+08
-.11187E+08
-.11137E+08
-.11161E+08
-.11221E+08
-.11077E+08
-.11042E+08
-.11190E+08
-.11121E+08
-.11167E+08
-.11156E+08
-.11134E+08
-.11312E+08
-.10988E+08
</weights>
</event>
<event>
      6  10001 -1.11453E+07  8.94427E-01 -1.00000E+00  1.81673E-01
      21    -1     0     0   502   501  0.000000000E+00  0.000000000E+00  9.726042824E-03  9.726042824E-03  0.000000000E+00  0.00000E+00  9.000E+00
       2    -1     0     0   501     0  0.000000000E+00  0.000000000E+00 -3.404363545E+02  3.404363545E+02  0.000000000E+00  0.00000E+00  9.000E+00
      23     2     1     2     0     0  2.923466966E-01 -2.532973709E-01 -3.211452036E+02  3.211607760E+02  3.138889946E+00  0.00000E+00  9.000E+00
      11     1     3     3     0     0  7.765113719E-01 -1.038411010E+00 -2.875188014E+02  2.875217252E+02  5.110000000E-04  0.00000E+00  9.000E+00
     -11     1     3     3     0     0 -4.841646753E-01  7.851136387E-01 -3.362640220E+01  3.363905088E+01  5.110000000E-04  0.00000E+00  9.000E+00
       2     1     1     2   502     0 -2.923466966E-01  2.532973709E-01 -1.928142479E+01  1.928530446E+01  0.000000000E+00  0.00000E+00  9.000E+00
#rwgt            1          17  -23155519.205892749                3      424643           0
<weights>
-.11145E+08
-.11888E+08
-.10239E+08
-.14448E+08
-.82038E+07
-.91702E+07
-.13910E+08
-.11127E+08
-.11162E+08
-.11169E+08
-.11158E+08
-.11031E+08
-.11279E+08
-.11162E+08
-.11159E+08
-.11331E+08
-.10866E+08
-.11380E+08
-.10786E+08
-.10740E+08
-.11406E+08
-.11105E+08
-.11162E+08
-.11103E+08
-.11141E+08
-.11245E+08
-.11077E+08
-.10863E+08
-.11427E+08
-.11082E+08
-.11169E+08
-.11025E+08
-.11262E+08
-.11392E+08
-.10833E+08
-.11118E+08
-.11169E+08
-.11161E+08
-.11132E+08
-.11216E+08
-.11080E+08
-.11145E+08
-.11145E+08
-.11126E+08
-.11164E+08
</weights>
</event>
<event>
      6  10001 -1.11453E+07  8.94427E-01 -1.00000E+00  6.20204E-01
      -2    -1     0     0     0   502  0.000000000E+00  0.000000000E+00  4.036652668E+01  4.036652668E+01  0.000000000E+00  0.00000E+00  9.000E+00
      21    -1     0     0   502   501  0.000000000E+00  0.000000000E+00 -2.249368344E-02  2.249368344E-02  0.000000000E+00  0.00000E+00  9.000E+00
      23     2     1     2     0     0  1.700420139E-01 -1.883660933E-01  3.898087601E+01  3.900244435E+01  1.271839094E+00  0.00000E+00  9.000E+00
      11     1     3     3     0     0 -3.974950361E-02 -6.853164085E-01  2.790313691E+01  2.791157983E+01  5.110000000E-04  0.00000E+00  9.000E+00
     -11     1     3     3     0     0  2.097915175E-01  4.969503152E-01  1.107773910E+01  1.109086453E+01  5.110000000E-04  0.00000E+00  9.000E+00
      -2     1     1     2     0   501 -1.700420139E-01  1.883660933E-01  1.363156987E+00  1.386576014E+00  0.000000000E+00  0.00000E+00  9.000E+00
#rwgt            1           7  -1679250.7045313576                3      425041           0
<weights>
-.11145E+08
-.12435E+08
-.96744E+07
-.15118E+08
-.77518E+07
-.91673E+07
-.13909E+08
-.11175E+08
-.11116E+08
-.10827E+08
-.10819E+08
-.10963E+08
-.11010E+08
-.10846E+08
-.10829E+08
-.11226E+08
-.11208E+08
-.11457E+08
-.11496E+08
-.11484E+08
-.11434E+08
-.11495E+08
-.11515E+08
-.11400E+08
-.11329E+08
-.11286E+08
-.11329E+08
-.11429E+08
-.11366E+08
-.11472E+08
-.11507E+08
-.11182E+08
-.11217E+08
-.11138E+08
-.11177E+08
-.11211E+08
-.11098E+08
-.11125E+08
-.11091E+08
-.11165E+08
-.11129E+08
-.11184E+08
-.11105E+08
-.11500E+08
-.10819E+08
</weights>
</event>
<event>
      6  10001 -1.11453E+07  8.94427E-01 -1.00000E+00  1.72250E-01
      21    -1     0     0   502   501  0.000000000E+00  0.000000000E+00  6.138432537E-03  6.138432537E-03  0.000000000E+00  0.00000E+00  9.000E+00
       2    -1     0     0   501     0  0.000000000E+00  0.000000000E+00 -1.337573156E+02  1.337573156E+02  0.000000000E+00  0.00000E+00  9.000E+00
      23     2     1     2     0     0  1.192828410E-01 -2.376772717E-01 -1.118990325E+02  1.119096913E+02  1.521451334E+00  0.00000E+00  9.000E+00
      11     1     3     3     0     0 -3.294503920E-01  4.851938908E-01 -2.685625929E+01  2.686266208E+01  5.110000000E-04  0.00000E+00  9.000E+00
     -11     1     3     3     0     0  4.487332330E-01 -7.228711624E-01 -8.504277321E+01  8.504702922E+01  5.110000000E-04  0.00000E+00  9.000E+00
       2     1     1     2   502     0 -1.192828410E-01  2.376772717E-01 -2.185214466E+01  2.185376272E+01  0.000000000E+00  0.00000E+00  9.000E+00
#rwgt            1          17  -8890645.7525856122                3      429782           0
<weights>
-.11145E+08
-.12110E+08
-.10047E+08
-.14718E+08
-.80505E+07
-.91702E+07
-.13910E+08
-.11140E+08
-.11150E+08
-.11166E+08
-.11172E+08
-.11142E+08
-.11152E+08
-.11173E+08
-.11173E+08
-.11237E+08
-.10979E+08
-.11137E+08
-.11075E+08
-.11072E+08
-.11137E+08
-.11108E+08
-.11119E+08
-.11215E+08
-.11023E+08
-.11079E+08
-.11171E+08
-.11139E+08
-.11061E+08
-.11116E+08
-.11116E+08
-.11101E+08
-.11177E+08
-.11140E+08
-.11143E+08
-.11139E+08
-.11146E+08
-.11154E+08
-.11141E+08
-.11123E+08
-.11160E+08
-.11182E+08
-.11105E+08
-.11115E+08
-.11171E+08
</weights>
</event>
<event>
      6  10001 -1.11453E+07  8.94427E-01 -1.00000E+00  3.49528E-01
       2    -1     0     0   501     0  0.000000000E+00  0.000000000E+00  5.438363551E+02  5.438363551E+02  0.000000000E+00  0.00000E+00  9.000E+00
      21    -1     0     0   502   501  0.000000000E+00  0.000000000E+00 -5.979988473E-03  5.979988473E-03  0.000000000E+00  0.00000E+00  9.000E+00
      23     2     1     2     0     0  3.895605633E-01 -1.252154263E+00  2.627207557E+02  2.627296571E+02  1.719753503E+00  0.00000E+00  9.000E+00
      11     1     3     3     0     0 -9.418336839E-02 -1.060817410E-01  1.752359768E+02  1.752360342E+02  5.110000000E-04  0.00000E+00  9.000E+00
     -11     1     3     3     0     0  4.837439317E-01 -1.146072522E+00  8.748477892E+01  8.749362282E+01  5.110000000E-04  0.00000E+00  9.000E+00
       2     1     1     2   502     0 -3.895605633E-01  1.252154263E+00  2.811096194E+02  2.811126780E+02  0.000000000E+00  0.00000E+00  9.000E+00
#rwgt            1          24  -32112133.824530374                3      433176           0
<weights>
-.11145E+08
-.11791E+08
-.10283E+08
-.14329E+08
-.82393E+07
-.91719E+07
-.13910E+08
-.11174E+08
-.11117E+08
-.10831E+08
-.10824E+08
-.10965E+08
-.11012E+08
-.10849E+08
-.10834E+08
-.11225E+08
-.11205E+08
-.11452E+08
-.11491E+08
-.11480E+08
-.11429E+08
-.11489E+08
-.11510E+08
-.11397E+08
-.11327E+08
-.11284E+08
-.11335E+08
-.11424E+08
-.11363E+08
-.11465E+08
-.11501E+08
-.11180E+08
-.11217E+08
-.11139E+08
-.11176E+08
-.11211E+08
-.11098E+08
-.11119E+08
-.11096E+08
-.11163E+08
-.11130E+08
-.11183E+08
-.11105E+08
-.11495E+08
-.10823E+08
</weights>
</event>
<event>
      6  10001  1.11453E+07  8.94427E-01 -1.00000E+00  5.92700E-01
       1    -1     0     0   501     0  0.000000000E+00  0.000000000E+00  2.657294124E-01  2.657294124E-01  0.000000000E+00  0.00000E+00  9.000E+00
      -1    -1     0     0     0   502  0.000000000E+00  0.000000000E+00 -3.829845399E+00  3.829845399E+00  0.000000000E+00  0.00000E+00  9.000E+00
      23     2     1     2     0     0  1.977843962E-01 -6.451979872E-01 -2.866758145E+00  3.125158886E+00  1.045426557E+00  0.00000E+00  9.000E+00
      11     1     3     3     0     0 -2.340975832E-01 -3.051828486E-01 -2.677094920E-01  4.686223243E-01  5.110000000E-04  0.00000E+00  9.000E+00
     -11     1     3     3     0     0  4.318819795E-01 -3.400151386E-01 -2.599048653E+00  2.656536562E+00  5.110000000E-04  0.00000E+00  9.000E+00
      21     1     1     2   501   502 -1.977843962E-01  6.451979872E-01 -6.973578409E-01  9.704159254E-01  2.107342426E-08  0.00000E+00  9.000E+00
#rwgt            1          21   27032.045307846936                3      435071           0
<weights>
0.11145E+08
0.13792E+08
0.92948E+07
0.41068E+07
0.14559E+08
0.17136E+08
0.16820E+07
0.10722E+08
0.11569E+08
0.10696E+08
0.10548E+08
0.10976E+08
0.10735E+08
0.10658E+08
0.10578E+08
0.11027E+08
0.11675E+08
0.11788E+08
0.11646E+08
0.11601E+08
0.11770E+08
0.11806E+08
0.11758E+08
0.11734E+08
0.11274E+08
0.11696E+08
0.10927E+08
0.11844E+08
0.11297E+08
0.11835E+08
0.11766E+08
0.11117E+08
0.11371E+08
0.11197E+08
0.11158E+08
0.10411E+08
0.11938E+08
0.11411E+08
0.10716E+08
0.11241E+08
0.11046E+08
0.11378E+08
0.10898E+08
0.11738E+08
0.10615E+08
</weights>
</event>
<event>
      6  10001 -1.11453E+07  8.94427E-01 -1.00000E+00  6.40694E-01
       2    -1     0     0   501     0  0.000000000E+00  0.000000000E+00  1.451655794E+02  1.451655794E+02  0.000000000E+00  0.00000E+00  9.000E+00
      21    -1     0     0   502   501  0.000000000E+00  0.000000000E+00 -7.101277255E-03  7.101277255E-03  0.000000000E+00  0.00000E+00  9.000E+00
      23     2     1     2     0     0  5.202279555E-01  6.997157699E-02  1.242515979E+02  1.242592120E+02  1.271472777E+00  0.00000E+00  9.000E+00
      11     1     3     3     0     0  2.367069213E-01 -1.964463393E-01  1.137411200E+02  1.137415360E+02  5.110000000E-04  0.00000E+00  9.000E+00
     -11     1     3     3     0     0  2.835210342E-01  2.664179163E-01  1.051047789E+01  1.051767599E+01  5.110000000E-04  0.00000E+00  9.000E+00
       2     1     1     2   502     0 -5.202279555E-01 -6.997157699E-02  2.090688022E+01  2.091346872E+01  0.000000000E+00  0.00000E+00  9.000E+00
#rwgt            1          24  -11503442.195896128                3      436202           0
<weights>
-.11145E+08
-.11989E+08
-.10134E+08
-.14578E+08
-.81200E+07
-.91663E+07
-.13909E+08
-.11178E+08
-.11113E+08
-.10835E+08
-.10831E+08
-.10966E+08
-.11016E+08
-.10855E+08
-.10841E+08
-.11224E+08
-.11202E+08
-.11446E+08
-.11482E+08
-.11471E+08
-.11423E+08
-.11481E+08
-.11503E+08
-.11384E+08
-.11328E+08
-.11283E+08
-.11308E+08
-.11417E+08
-.11356E+08
-.11457E+08
-.11493E+08
-.11178E+08
-.11216E+08
-.11139E+08
-.11174E+08
-.11214E+08
-.11095E+08
-.11111E+08
-.11105E+08
-.11161E+08
-.11132E+08
-.11182E+08
-.11107E+08
-.11488E+08
-.10829E+08
</weights>
</event>
<event>
      6  10001 -1.11453E+07  8.94427E-01 -1.00000E+00  2.85403E-01
      21    -1     0     0   502   501  0.000000000E+00  0.000000000E+00  6.690809247E-04  6.690809247E-04  0.000000000E+00  0.00000E+00  9.000E+00
       2    -1     0     0   501     0  0.000000000E+00  0.000000000E+00 -1.043982322E+03  1.043982322E+03  0.000000000E+00  0.00000E+00  9.000E+00
      23     2     1     2     0     0  1.529523721E-01 -3.789284202E-01 -8.515299371E+02  8.515308414E+02  1.171818378E+00  0.00000E+00  9.000E+00
      11     1     3     3     0     0 -2.670855946E-01 -5.853448438E-01 -2.921157000E+02  2.921164086E+02  5.110000000E-04  0.00000E+00  9.000E+00
     -11     1     3     3     0     0  4.200379666E-01  2.064164236E-01 -5.594142372E+02  5.594144330E+02  5.110000000E-04  0.00000E+00  9.000E+00
       2     1     1     2   502     0 -1.529523721E-01  3.789284202E-01 -1.924517161E+02  1.924521500E+02  0.000000000E+00  0.00000E+00  9.000E+00
#rwgt            1          17  -9132772.9511145279                3      438273           0
<weights>
-.11145E+08
-.10109E+08
-.12241E+08
-.12286E+08
-.98083E+07
-.91702E+07
-.13910E+08
-.11140E+08
-.11150E+08
-.11164E+08
-.11131E+08
-.10898E+08
-.11420E+08
-.11151E+08
-.11143E+08
-.10676E+08
-.11840E+08
-.11613E+08
-.10519E+08
-.10410E+08
-.11684E+08
-.11135E+08
-.11152E+08
-.10872E+08
-.11398E+08
-.11750E+08
-.10790E+08
-.10462E+08
-.11964E+08
-.11044E+08
-.11217E+08
-.11256E+08
-.11030E+08
-.11876E+08
-.10297E+08
-.11025E+08
-.11257E+08
-.11105E+08
-.11200E+08
-.11357E+08
-.10959E+08
-.11108E+08
-.11184E+08
-.11141E+08
-.11150E+08
</weights>
</event>
<event>
      6  10001 -1.11453E+07  8.94427E-01 -1.00000E+00  5.59507E-01
      21    -1     0     0   502   501  0.000000000E+00  0.000000000E+00  1.870654408E-02  1.870654408E-02  0.000000000E+00  0.00000E+00  9.000E+00
       4    -1     0     0   501     0  0.000000000E+00  0.000000000E+00 -6.923361449E+01  6.923361449E+01  0.000000000E+00  0.00000E+00  9.000E+00
      23     2     1     2     0     0 -2.578729078E-01  5.226271582E-02 -6.790804845E+01  6.791923755E+01  1.204390104E+00  0.00000E+00  9.000E+00
      11     1     3     3     0     0 -4.091733908E-01  5.360694159E-01 -2.875105255E+01  2.875896063E+01  5.110000000E-04  0.00000E+00  9.000E+00
     -11     1     3     3     0     0  1.513004830E-01 -4.838067001E-01 -3.915699590E+01  3.916027692E+01  5.110000000E-04  0.00000E+00  9.000E+00
       4     1     1     2   502     0  2.578729078E-01 -5.226271582E-02 -1.306859493E+00  1.333083479E+00  0.000000000E+00  0.00000E+00  9.000E+00
#rwgt            1          19  -1896611.1230336290                3      438704           0
<weights>
-.11145E+08
-.12527E+08
-.95851E+07
-.15225E+08
-.76801E+07
-.91702E+07
-.13910E+08
-.11204E+08
-.11087E+08
-.11057E+08
-.11128E+08
-.11002E+08
-.11253E+08
-.11139E+08
-.11143E+08
-.11165E+08
-.11064E+08
-.11138E+08
-.11091E+08
-.11084E+08
-.11145E+08
-.11126E+08
-.11102E+08
-.11118E+08
-.11155E+08
-.11158E+08
-.11120E+08
-.11129E+08
-.11075E+08
-.11075E+08
-.11123E+08
-.11087E+08
-.11200E+08
-.11165E+08
-.11119E+08
-.11273E+08
-.11028E+08
-.10811E+08
-.11542E+08
-.11026E+08
-.11256E+08
-.11099E+08
-.11195E+08
-.11169E+08
-.11103E+08
</weights>
</event>
<event>
      6  10001 -1.11453E+07  8.94427E-01 -1.00000E+00  6.06812E-01
      21    -1     0     0   502   501  0.000000000E+00  0.000000000E+00  4.353406130E-02  4.353406130E-02  0.000000000E+00  0.00000E+00  9.000E+00
       3    -1     0     0   501     0  0.000000000E+00  0.000000000E+00 -1.170193854E+02  1.170193854E+02  0.000000000E+00  0.00000E+00  9.000E+00
      23     2     1     2     0     0  1.575421023E-01  2.048866415E-01 -1.165841106E+02  1.165936020E+02  1.465056578E+00  0.00000E+00  9.000E+00
      11     1     3     3     0     0 -5.557523072E-01 -8.618797475E-02 -2.534473370E+01  2.535097267E+01  5.110000000E-04  0.00000E+00  9.000E+00
     -11     1     3     3     0     0  7.132944095E-01  2.910746163E-01 -9.123937689E+01  9.124262934E+01  5.110000000E-04  0.00000E+00  9.000E+00
       3     1     1     2   502     0 -1.575421023E-01 -2.048866415E-01 -3.917407415E-01  4.693174389E-01  0.000000000E+00  0.00000E+00  9.000E+00
#rwgt            1          18  -592764.87061563192                3      440104           0
<weights>
-.11145E+08
-.91579E+07
-.13248E+08
-.13029E+08
-.93703E+07
-.78836E+07
-.15885E+08
-.11069E+08
-.11218E+08
-.11266E+08
-.11323E+08
-.11398E+08
-.10987E+08
-.11319E+08
-.11281E+08
-.12369E+08
-.95455E+07
-.11525E+08
-.10275E+08
-.10205E+08
-.11553E+08
-.10967E+08
-.10959E+08
-.10058E+08
-.12130E+08
-.11494E+08
-.10291E+08
-.10242E+08
-.11937E+08
-.10927E+08
-.11031E+08
-.11240E+08
-.10996E+08
-.11185E+08
-.11111E+08
-.11130E+08
-.11152E+08
-.11197E+08
-.11123E+08
-.11072E+08
-.11203E+08
-.11209E+08
-.11076E+08
-.10974E+08
-.11297E+08
</weights>
</event>
<event>
      6  10001 -1.11453E+07  8.94427E-01 -1.00000E+00  4.29172E-01
      -4    -1     0     0     0   502  0.000000000E+00  0.000000000E+00  1.319870235E-01  1.319870235E-01  0.000000000E+00  0.00000E+00  9.000E+00
       4    -1     0     0   501     0  0.000000000E+00  0.000000000E+00 -4.273997752E+00  4.273997752E+00  0.000000000E+00  0.00000E+00  9.000E+00
      23     2     1     2     0     0 -2.685829793E-01  1.368669061E-01 -3.631433525E+00  3.813061132E+00  1.123056713E+00  0.00000E+00  9.000E+00
      11     1     3     3     0     0 -6.272950216E-01  8.629010815E-03 -3.077417367E+00  3.140711928E+00  5.110000000E-04  0.00000E+00  9.000E+00
     -11     1     3     3     0     0  3.587120423E-01  1.282378953E-01 -5.540161585E-01  6.723492040E-01  5.110000000E-04  0.00000E+00  9.000E+00
      21     1     1     2   501   502  2.685829793E-01 -1.368669061E-01 -5.105772038E-01  5.929236441E-01  1.053671213E-08  0.00000E+00  9.000E+00
#rwgt            1           4  -660127.08732901700                3      452465           0
<weights>
-.11145E+08
-.11690E+08
-.10034E+08
-.18339E+08
-.59498E+07
-.66831E+07
-.17728E+08
-.11208E+08
-.11082E+08
-.10964E+08
-.11016E+08
-.11018E+08
-.11117E+08
-.11006E+08
-.11018E+08
-.11199E+08
-.11112E+08
-.11264E+08
-.11272E+08
-.11268E+08
-.11255E+08
-.11263E+08
-.11304E+08
-.11172E+08
-.11285E+08
-.11218E+08
-.11108E+08
-.11225E+08
-.11202E+08
-.11223E+08
-.11275E+08
-.11120E+08
-.11209E+08
-.11155E+08
-.11139E+08
-.11242E+08
-.11060E+08
-.10918E+08
-.11331E+08
-.11104E+08
-.11182E+08
-.11153E+08
-.11137E+08
-.11299E+08
-.10995E+08
</weights>
</event>
<event>
      7  10001  1.11453E+07  8.94427E-01 -1.00000E+00  6.07649E-01
       2    -1     0     0   501     0  0.000000000E+00  0.000000000E+00  3.156760969E+00  3.156760969E+00  0.000000000E+00  0.00000E+00  9.000E+00
      21    -1     0     0   511   502  0.000000000E+00  0.000000000E+00 -6.959254401E+00  6.959254401E+00  0.000000000E+00  0.00000E+00  9.000E+00
      23     2     1     2     0     0  4.293920572E-01 -3.612834505E-01  2.057964055E+00  2.893292416E+00  1.954743379E+00  0.00000E+00  9.000E+00
      11     1     3     3     0     0  7.496333250E-01  4.838296358E-01  1.702548605E+00  1.922163690E+00  5.110000000E-04  0.00000E+00  9.000E+00
     -11     1     3     3     0     0 -3.202412678E-01 -8.451130863E-01  3.554154504E-01  9.711287256E-01  5.110000000E-04  0.00000E+00  9.000E+00
      21     1     1     2   501   502 -6.733640021E-01  4.676396056E-01 -6.488775987E+00  6.540360823E+00  8.429369702E-08  0.00000E+00  9.000E+00
       2     1     1     2   511     0  2.439719449E-01 -1.063561552E-01  6.283184993E-01  6.823621313E-01  0.000000000E+00  0.00000E+00  9.000E+00
#rwgt            2         249   826247.75803930929                3      454761           0
<weights>
0.11145E+08
0.10852E+08
0.11263E+08
0.13189E+08
0.90244E+07
0.91702E+07
0.13910E+08
0.11208E+08
0.11080E+08
0.10888E+08
0.10911E+08
0.10983E+08
0.11067E+08
0.10918E+08
0.10917E+08
0.11216E+08
0.11164E+08
0.11374E+08
0.11378E+08
0.11375E+08
0.11356E+08
0.11387E+08
0.11420E+08
0.11249E+08
0.11338E+08
0.11289E+08
0.11090E+08
0.11344E+08
0.11275E+08
0.11354E+08
0.11399E+08
0.11153E+08
0.11213E+08
0.11142E+08
0.11162E+08
0.11248E+08
0.11056E+08
0.11013E+08
0.11204E+08
0.11136E+08
0.11154E+08
0.11164E+08
0.11126E+08
0.11408E+08
0.10900E+08
</weights>
</event>
<event>
      6  10001 -1.11453E+07  8.94427E-01 -1.00000E+00  6.01985E-01
       2    -1     0     0   501     0  0.000000000E+00  0.000000000E+00  2.313621036E-01  2.313621036E-01  0.000000000E+00  0.00000E+00  9.000E+00
      -2    -1     0     0     0   502  0.000000000E+00  0.000000000E+00 -2.137703791E+00  2.137703791E+00  0.000000000E+00  0.00000E+00  9.000E+00
      23     2     1     2     0     0  3.043053973E-01 -7.285570314E-02 -1.371439050E+00  1.749363902E+00  1.039961184E+00  0.00000E+00  9.000E+00
      11     1     3     3     0     0  2.333386414E-01  3.419919785E-01 -1.241768164E+00  1.308966718E+00  5.110000000E-04  0.00000E+00  9.000E+00
     -11     1     3     3     0     0  7.096675594E-02 -4.148476816E-01 -1.296708857E-01  4.403971833E-01  5.110000000E-04  0.00000E+00  9.000E+00
      21     1     1     2   501   502 -3.043053973E-01  7.285570314E-02 -5.349026374E-01  6.197019928E-01  0.000000000E+00  0.00000E+00  9.000E+00
#rwgt            1          23  -312284.70469602529                3      456950           0
<weights>
-.11145E+08
-.11177E+08
-.99216E+07
-.26062E+08
-.11152E+07
-.14144E+07
-.25816E+08
-.11705E+08
-.10555E+08
-.11015E+08
-.11174E+08
-.10981E+08
-.11302E+08
-.11095E+08
-.11161E+08
-.11346E+08
-.10801E+08
-.11076E+08
-.11197E+08
-.11224E+08
-.11059E+08
-.11078E+08
-.11194E+08
-.10875E+08
-.11417E+08
-.11011E+08
-.11202E+08
-.10978E+08
-.11252E+08
-.10997E+08
-.11136E+08
-.11176E+08
-.11100E+08
-.11124E+08
-.11140E+08
-.11872E+08
-.10387E+08
-.10685E+08
-.11565E+08
-.11063E+08
-.11229E+08
-.11021E+08
-.11278E+08
-.11174E+08
-.11100E+08
</weights>
</event>
<event>
      6  10001 -1.11453E+07  8.94427E-01 -1.00000E+00  3.25023E-01
      21    -1     0     0   502   501  0.000000000E+00  0.000000000E+00  1.795854156E-02  1.795854156E-02  0.000000000E+00  0.00000E+00  9.000E+00
       1    -1     0     0   501     0  0.000000000E+00  0.000000000E+00 -1.399498139E+02  1.399498139E+02  0.000000000E+00  0.00000E+00  9.000E+00
      23     2     1     2     0     0 -2.798127932E-01 -2.532325507E-01 -1.373973017E+02  1.374052767E+02  1.431482550E+00  0.00000E+00  9.000E+00
      11     1     3     3     0     0  4.477541805E-01 -5.201587849E-01 -7.561163286E+01  7.561474772E+01  5.110000000E-04  0.00000E+00  9.000E+00
     -11     1     3     3     0     0 -7.275669737E-01  2.669262342E-01 -6.178566880E+01  6.179052899E+01  5.110000000E-04  0.00000E+00  9.000E+00
       1     1     1     2   502     0  2.798127932E-01  2.532325507E-01 -2.534553668E+00  2.562495702E+00  0.000000000E+00  0.00000E+00  9.000E+00
#rwgt            1          16  -4136620.9147713813                3      457817           0
<weights>
-.11145E+08
-.11727E+08
-.10444E+08
-.14253E+08
-.83685E+07
-.91702E+07
-.13910E+08
-.11214E+08
-.11078E+08
-.11180E+08
-.11199E+08
-.11219E+08
-.11041E+08
-.11194E+08
-.11198E+08
-.10450E+08
-.11944E+08
-.10700E+08
-.11511E+08
-.11557E+08
-.10650E+08
-.11135E+08
-.11023E+08
-.11312E+08
-.10886E+08
-.10927E+08
-.11242E+08
-.11330E+08
-.10700E+08
-.11148E+08
-.11052E+08
-.11102E+08
-.11168E+08
-.10720E+08
-.11556E+08
-.11102E+08
-.11174E+08
-.11134E+08
-.11170E+08
-.11209E+08
-.11078E+08
-.11221E+08
-.11063E+08
-.11089E+08
-.11194E+08
</weights>
</event>
<event>
      6  10001 -1.11453E+07  8.94427E-01 -1.00000E+00  5.90950E-01
      21    -1     0     0   502   501  0.000000000E+00  0.000000000E+00  1.462823372E-03  1.462823372E-03  0.000000000E+00  0.00000E+00  9.000E+00
       2    -1     0     0   501     0  0.000000000E+00  0.000000000E+00 -4.942225262E+02  4.942225262E+02  0.000000000E+00  0.00000E+00  9.000E+00
      23     2     1     2     0     0 -1.028202749E-01  5.189700504E-01 -3.761114237E+02  3.761131644E+02  1.014651126E+00  0.00000E+00  9.000E+00
      11     1     3     3     0     0  1.512336151E-01  7.313667911E-01 -1.936335265E+02  1.936349668E+02  5.110000000E-04  0.00000E+00  9.000E+00
     -11     1     3     3     0     0 -2.540538900E-01 -2.123967407E-01 -1.824778972E+02  1.824781976E+02  5.110000000E-04  0.00000E+00  9.000E+00
       2     1     1     2   502     0  1.028202749E-01 -5.189700504E-01 -1.181096397E+02  1.181108246E+02  0.000000000E+00  0.00000E+00  9.000E+00
#rwgt            1          17  -71192847.244440258                3      460613           0
<weights>
-.11145E+08
-.17946E+08
-.22557E+07
-.21812E+08
-.18074E+07
-.91702E+07
-.13910E+08
-.11130E+08
-.11160E+08
-.11164E+08
-.11150E+08
-.10979E+08
-.11333E+08
-.11156E+08
-.11152E+08
-.11267E+08
-.10959E+08
-.11482E+08
-.10669E+08
-.10601E+08
-.11522E+08
-.11109E+08
-.11172E+08
-.11035E+08
-.11218E+08
-.11361E+08
-.11010E+08
-.10732E+08
-.11602E+08
-.11066E+08
-.11191E+08
-.11029E+08
-.11259E+08
-.11534E+08
-.10669E+08
-.11093E+08
-.11193E+08
-.11145E+08
-.11152E+08
-.11260E+08
-.11043E+08
-.11132E+08
-.11158E+08
-.11133E+08
-.11158E+08
</weights>
</event>
<event>
      7  10001  1.11453E+07  8.94427E-01 -1.00000E+00  6.07649E-01
      21    -1     0     0   511   502  0.000000000E+00  0.000000000E+00  7.710549118E-01  7.710549118E-01  0.000000000E+00  0.00000E+00  9.000E+00
       2    -1     0     0   501     0  0.000000000E+00  0.000000000E+00 -2.537479514E+01  2.537479514E+01  0.000000000E+00  0.00000E+00  9.000E+00
      23     2     1     2     0     0 -7.239848559E-02 -2.832427972E-01 -2.207672213E+01  2.210459474E+01  1.070504742E+00  0.00000E+00  9.000E+00
      11     1     3     3     0     0  2.571922561E-01  2.077994743E-01 -2.905604789E+00  2.924357695E+00  5.110000000E-04  0.00000E+00  9.000E+00
     -11     1     3     3     0     0 -3.295907417E-01 -4.910422714E-01 -1.917111734E+01  1.918023704E+01  5.110000000E-04  0.00000E+00  9.000E+00
      21     1     1     2   501   502  4.542361820E-01  1.897300295E-01  6.637433893E-01  8.263675211E-01  2.394640249E-07  0.00000E+00  9.000E+00
       2     1     1     2   511     0 -3.818376964E-01  9.351276764E-02 -3.190761485E+00  3.214887793E+00  0.000000000E+00  0.00000E+00  9.000E+00
#rwgt            2         190   611354.08580351318                3      460932           0
<weights>
0.11145E+08
0.11060E+08
0.11022E+08
0.13442E+08
0.88315E+07
0.91702E+07
0.13910E+08
0.11197E+08
0.11092E+08
0.10991E+08
0.11034E+08
0.11106E+08
0.11025E+08
0.11024E+08
0.11033E+08
0.11085E+08
0.11269E+08
0.11156E+08
0.11395E+08
0.11403E+08
0.11144E+08
0.11261E+08
0.11273E+08
0.11243E+08
0.11209E+08
0.11207E+08
0.11112E+08
0.11379E+08
0.10988E+08
0.11248E+08
0.11240E+08
0.11145E+08
0.11180E+08
0.11082E+08
0.11244E+08
0.11108E+08
0.11188E+08
0.10985E+08
0.11277E+08
0.11088E+08
0.11191E+08
0.11212E+08
0.11075E+08
0.11277E+08
0.11017E+08
</weights>
</event>
<event>
      7  10001  1.11453E+07  3.63048E+00 -1.00000E+00  2.70305E-01
       4    -1     0     0   501     0  0.000000000E+00  0.000000000E+00  1.924634517E-01  1.924634517E-01  0.000000000E+00  0.00000E+00  9.000E+00
      21    -1     0     0   502   501  0.000000000E+00  0.000000000E+00 -2.319517741E+01  2.319517741E+01  0.000000000E+00  0.00000E+00  9.000E+00
      23     2     1     2     0     0  1.447966441E-01  7.510296211E-01 -2.750254924E+00  3.035216658E+00  1.031322674E+00  0.00000E+00  9.000E+00
      11     1     3     3     0     0 -2.951670582E-01  7.510116491E-01 -2.103836343E+00  2.253279767E+00  5.110000000E-04  0.00000E+00  9.000E+00
     -11     1     3     3     0     0  4.399637023E-01  1.797199894E-05 -6.464185810E-01  7.819368917E-01  5.110000000E-04  0.00000E+00  9.000E+00
       4     1     1     2   511     0  3.411764765E-02 -1.268791431E-01 -5.163510961E-02  1.411683937E-01  0.000000000E+00  0.00000E+00  9.000E+00
      21     1     1     2   502   511 -1.789142918E-01 -6.241504779E-01 -2.020082392E+01  2.021125581E+01  3.371747881E-07  0.00000E+00  9.000E+00
#rwgt            2         308   2629164.7669477006                3      464945           0
<weights>
0.11145E+08
0.11300E+08
0.10698E+08
0.13733E+08
0.85718E+07
0.91702E+07
0.13910E+08
0.11216E+08
0.11073E+08
0.10931E+08
0.10982E+08
0.10998E+08
0.11108E+08
0.10973E+08
0.10984E+08
0.11200E+08
0.11136E+08
0.11301E+08
0.11308E+08
0.11304E+08
0.11290E+08
0.11302E+08
0.11345E+08
0.11181E+08
0.11324E+08
0.11277E+08
0.11065E+08
0.11273E+08
0.11210E+08
0.11261E+08
0.11314E+08
0.11124E+08
0.11217E+08
0.11152E+08
0.11144E+08
0.11264E+08
0.11040E+08
0.10922E+08
0.11322E+08
0.11111E+08
0.11177E+08
0.11150E+08
0.11140E+08
0.11338E+08
0.10960E+08
</weights>
</event>
<event>
      7  10001  1.11453E+07  9.48940E+00 -1.00000E+00  1.97889E-01
      21    -1     0     0   502   501  0.000000000E+00  0.000000000E+00  1.123507289E-01  1.123507289E-01  0.000000000E+00  0.00000E+00  9.000E+00
       2    -1     0     0   501     0  0.000000000E+00  0.000000000E+00 -3.477096088E+02  3.477096088E+02  0.000000000E+00  0.00000E+00  9.000E+00
      23     2     1     2     0     0  1.888308494E+00  2.378508236E+00 -1.204241606E+02  1.204758941E+02  1.799890822E+00  0.00000E+00  9.000E+00
      11     1     3     3     0     0  2.222589541E+00  2.137971641E+00 -1.108297024E+02  1.108726015E+02  5.110000000E-04  0.00000E+00  9.000E+00
     -11     1     3     3     0     0 -3.342810467E-01  2.405365945E-01 -9.594458160E+00  9.603292629E+00  5.110000000E-04  0.00000E+00  9.000E+00
       2     1     1     2   512     0 -2.906516003E+00  1.885161427E+00 -1.557811230E+02  1.558196391E+02  0.000000000E+00  0.00000E+00  9.000E+00
      21     1     1     2   502   512  1.018207509E+00 -4.263669662E+00 -7.139197452E+01  7.152642625E+01  9.536743164E-07  0.00000E+00  9.000E+00
#rwgt            2         189   24770617.037606053                3      473252           0
<weights>
0.11145E+08
0.10619E+08
0.11573E+08
0.12906E+08
0.92728E+07
0.91702E+07
0.13910E+08
0.11128E+08
0.11162E+08
0.11168E+08
0.11158E+08
0.11028E+08
0.11282E+08
0.11161E+08
0.11159E+08
0.11329E+08
0.10868E+08
0.11386E+08
0.10779E+08
0.10731E+08
0.11413E+08
0.11105E+08
0.11163E+08
0.11100E+08
0.11145E+08
0.11251E+08
0.11074E+08
0.10856E+08
0.11437E+08
0.11081E+08
0.11171E+08
0.11024E+08
0.11263E+08
0.11400E+08
0.10823E+08
0.11116E+08
0.11170E+08
0.11160E+08
0.11133E+08
0.11219E+08
0.11078E+08
0.11144E+08
0.11146E+08
0.11127E+08
0.11164E+08
</weights>
</event>
<event>
      7  10001 -1.11453E+07  1.51898E+00 -1.00000E+00  4.13999E-01
      21    -1     0     0   502   501  0.000000000E+00  0.000000000E+00  1.686438699E-01  1.686438699E-01  0.000000000E+00  0.00000E+00  9.000E+00
      -1    -1     0     0     0   502  0.000000000E+00  0.000000000E+00 -8.736509380E+00  8.736509380E+00  0.000000000E+00  0.00000E+00  9.000E+00
      23     2     1     2     0     0 -6.828893125E-02  1.733928151E-01 -7.013677333E+00  7.118173018E+00  1.200828440E+00  0.00000E+00  9.000E+00
      11     1     3     3     0     0 -2.271640866E-01  4.424978734E-02 -2.133674677E-01  3.147816757E-01  5.110000000E-04  0.00000E+00  9.000E+00
     -11     1     3     3     0     0  1.588751554E-01  1.291430277E-01 -6.800309865E+00  6.803391343E+00  5.110000000E-04  0.00000E+00  9.000E+00
      -1     1     1     2     0   511 -2.079548474E-01 -5.765901552E-02 -1.455827232E+00  1.471734592E+00  0.000000000E+00  0.00000E+00  9.000E+00
      21     1     1     2   511   501  2.762437787E-01 -1.157337996E-01 -9.836094514E-02  3.152456394E-01  3.966603324E-08  0.00000E+00  9.000E+00
#rwgt            1          15  -71128.607368651719                3      474415           0
<weights>
-.11145E+08
0.20605E+07
-.22390E+08
-.19705E+08
-.53135E+07
0.49314E+07
-.35557E+08
-.11591E+08
-.10718E+08
-.11353E+08
-.11603E+08
-.11073E+08
-.11631E+08
-.11490E+08
-.11583E+08
-.11396E+08
-.10439E+08
-.10617E+08
-.10733E+08
-.10780E+08
-.10623E+08
-.10597E+08
-.10660E+08
-.10530E+08
-.11200E+08
-.10631E+08
-.11317E+08
-.10492E+08
-.11062E+08
-.10494E+08
-.10653E+08
-.11155E+08
-.10978E+08
-.11078E+08
-.11147E+08
-.12248E+08
-.10009E+08
-.10488E+08
-.12020E+08
-.10935E+08
-.11353E+08
-.10860E+08
-.11450E+08
-.10726E+08
-.11493E+08
</weights>
</event>
<event>
      7  10001  1.11453E+07  2.92078E+00 -1.00000E+00  2.95658E-01
      21    -1     0     0   502   501  0.000000000E+00  0.000000000E+00  4.555163464E-02  4.555163464E-02  0.000000000E+00  0.00000E+00  9.000E+00
       2    -1     0     0   501     0  0.000000000E+00  0.000000000E+00 -1.410724177E+02  1.410724177E+02  0.000000000E+00  0.00000E+00  9.000E+00
      23     2     1     2     0     0  9.989104690E-02  1.182686813E+00 -1.014621040E+02  1.014740477E+02  1.007504544E+00  0.00000E+00  9.000E+00
      11     1     3     3     0     0  6.375009654E-02  3.025063586E-01 -6.063165201E+00  6.071041647E+00  5.110000000E-04  0.00000E+00  9.000E+00
     -11     1     3     3     0     0  3.614095036E-02  8.801804542E-01 -9.539893883E+01  9.540300600E+01  5.110000000E-04  0.00000E+00  9.000E+00
       2     1     1     2   512     0  7.885514290E-01 -7.020546281E-01 -3.127922361E+01  3.129703698E+01  0.000000000E+00  0.00000E+00  9.000E+00
      21     1     1     2   502   512 -8.884424759E-01 -4.806321848E-01 -8.285538448E+00  8.346884731E+00  1.192092896E-07  0.00000E+00  9.000E+00
#rwgt            2         189   13661360.845542455                3      483173           0
<weights>
0.11145E+08
0.11181E+08
0.10913E+08
0.13589E+08
0.87444E+07
0.91702E+07
0.13910E+08
0.11138E+08
0.11152E+08
0.11168E+08
0.11172E+08
0.11137E+08
0.11158E+08
0.11174E+08
0.11173E+08
0.11246E+08
0.10967E+08
0.11147E+08
0.11060E+08
0.11056E+08
0.11149E+08
0.11107E+08
0.11121E+08
0.11212E+08
0.11025E+08
0.11084E+08
0.11169E+08
0.11127E+08
0.11077E+08
0.11114E+08
0.11118E+08
0.11097E+08
0.11182E+08
0.11150E+08
0.11131E+08
0.11140E+08
0.11145E+08
0.11158E+08
0.11136E+08
0.11128E+08
0.11156E+08
0.11180E+08
0.11108E+08
0.11115E+08
0.11172E+08
</weights>
</event>
<event>
      6  10001 -1.11453E+07  8.94427E-01 -1.00000E+00  1.46778E-01
      -4    -1     0     0     0   502  0.000000000E+00  0.000000000E+00  2.094698592E-02  2.094698592E-02  0.000000000E+00  0.00000E+00  9.000E+00
      21    -1     0     0   502   501  0.000000000E+00  0.000000000E+00 -2.332018985E+01  2.332018985E+01  0.000000000E+00  0.00000E+00  9.000E+00
      23     2     1     2     0     0  4.325485818E-02 -2.877420761E-01 -2.011906707E+01  2.014767718E+01  1.033135782E+00  0.00000E+00  9.000E+00
      11     1     3     3     0     0  2.721752525E-01 -6.157925886E-01 -1.270556151E+01  1.272338687E+01  5.110000000E-04  0.00000E+00  9.000E+00
     -11     1     3     3     0     0 -2.289203943E-01  3.280505126E-01 -7.413505558E+00  7.424290310E+00  5.110000000E-04  0.00000E+00  9.000E+00
      -4     1     1     2     0   501 -4.325485818E-02  2.877420761E-01 -3.180175791E+00  3.193459652E+00  0.000000000E+00  0.00000E+00  9.000E+00
#rwgt            1           3  -1058431.6782033392                3      485647           0
<weights>
-.11145E+08
-.12660E+08
-.94249E+07
-.15386E+08
-.75517E+07
-.91702E+07
-.13910E+08
-.11217E+08
-.11073E+08
-.10931E+08
-.10982E+08
-.10998E+08
-.11108E+08
-.10973E+08
-.10984E+08
-.11200E+08
-.11136E+08
-.11301E+08
-.11308E+08
-.11305E+08
-.11290E+08
-.11302E+08
-.11346E+08
-.11181E+08
-.11324E+08
-.11277E+08
-.11065E+08
-.11273E+08
-.11210E+08
-.11261E+08
-.11314E+08
-.11124E+08
-.11217E+08
-.11152E+08
-.11144E+08
-.11264E+08
-.11039E+08
-.10922E+08
-.11322E+08
-.11111E+08
-.11176E+08
-.11150E+08
-.11140E+08
-.11338E+08
-.10960E+08
</weights>
</event>
<event>
      7  10001  1.11453E+07  3.08793E+00 -1.00000E+00  2.88704E-01
      -2    -1     0     0     0   502  0.000000000E+00  0.000000000E+00  1.167515186E+00  1.167515186E+00  0.000000000E+00  0.00000E+00  9.000E+00
      21    -1     0     0   502   501  0.000000000E+00  0.000000000E+00 -7.847267777E+00  7.847267777E+00  0.000000000E+00  0.00000E+00  9.000E+00
      23     2     1     2     0     0  5.191053916E-01 -5.237799545E-01 -4.404397256E-01  2.315578500E+00  2.150372244E+00  0.00000E+00  9.000E+00
      11     1     3     3     0     0 -8.131763301E-01 -3.473389798E-01 -4.014095817E-01  9.710973299E-01  5.110000000E-04  0.00000E+00  9.000E+00
     -11     1     3     3     0     0  1.332281722E+00 -1.764409747E-01 -3.903014392E-02  1.344481170E+00  5.110000000E-04  0.00000E+00  9.000E+00
      -2     1     1     2     0   511  9.059075537E-01 -3.659892878E-02 -2.209967863E+00  2.388716378E+00  0.000000000E+00  0.00000E+00  9.000E+00
      21     1     1     2   511   501 -1.425012945E+00  5.603788833E-01 -4.029345003E+00  4.310488086E+00  0.000000000E+00  0.00000E+00  9.000E+00
#rwgt            1           7   2159011.4947470827                3      487961           0
<weights>
0.11145E+08
0.12224E+08
0.99751E+07
0.12545E+08
0.95213E+07
0.10744E+08
0.11495E+08
0.11222E+08
0.11064E+08
0.10763E+08
0.10767E+08
0.10926E+08
0.10994E+08
0.10784E+08
0.10775E+08
0.11238E+08
0.11227E+08
0.11520E+08
0.11538E+08
0.11536E+08
0.11490E+08
0.11550E+08
0.11592E+08
0.11344E+08
0.11429E+08
0.11384E+08
0.11076E+08
0.11495E+08
0.11373E+08
0.11518E+08
0.11566E+08
0.11182E+08
0.11233E+08
0.11135E+08
0.11181E+08
0.11269E+08
0.11041E+08
0.11070E+08
0.11094E+08
0.11173E+08
0.11122E+08
0.11180E+08
0.11110E+08
0.11563E+08
0.10761E+08
</weights>
</event>
<event>
      6  10001 -1.11453E+07  8.94427E-01 -1.00000E+00  3.19730E-01
      -2    -1     0     0     0   502  0.000000000E+00  0.000000000E+00  1.484644857E+02  1.484644857E+02  0.000000000E+00  0.00000E+00  9.000E+00
      21    -1     0     0   502   501  0.000000000E+00  0.000000000E+00 -2.500059829E-02  2.500059829E-02  0.000000000E+00  0.00000E+00  9.000E+00
      23     2     1     2     0     0  1.470511566E+00  3.248956065E-02  1.092147577E+02  1.092371909E+02  1.654418623E+00  0.00000E+00  9.000E+00
      11     1     3     3     0     0  1.168155523E+00 -6.662182304E-01  5.207246281E+01  5.208982451E+01  5.110000000E-04  0.00000E+00  9.000E+00
     -11     1     3     3     0     0  3.023560435E-01  6.987077911E-01  5.714229494E+01  5.714736637E+01  5.110000000E-04  0.00000E+00  9.000E+00
      -2     1     1     2     0   501 -1.470511566E+00 -3.248956065E-02  3.922472731E+01  3.925229538E+01  0.000000000E+00  0.00000E+00  9.000E+00
#rwgt            1           7  -3946094.6239697803                3      521286           0
<weights>
-.11145E+08
-.12556E+08
-.95221E+07
-.15259E+08
-.76295E+07
-.91717E+07
-.13910E+08
-.11172E+08
-.11119E+08
-.10825E+08
-.10815E+08
-.10962E+08
-.11007E+08
-.10842E+08
-.10826E+08
-.11226E+08
-.11210E+08
-.11460E+08
-.11502E+08
-.11490E+08
-.11437E+08
-.11499E+08
-.11519E+08
-.11409E+08
-.11328E+08
-.11286E+08
-.11349E+08
-.11432E+08
-.11370E+08
-.11476E+08
-.11511E+08
-.11183E+08
-.11217E+08
-.11138E+08
-.11177E+08
-.11209E+08
-.11101E+08
-.11129E+08
-.11086E+08
-.11166E+08
-.11128E+08
-.11185E+08
-.11104E+08
-.11504E+08
-.10816E+08
</weights>
</event>
<event>
      7  10001  1.11453E+07  1.29921E+00 -1.00000E+00  4.70795E-01
      21    -1     0     0   502   501  0.000000000E+00  0.000000000E+00  1.758505368E+01  1.758505368E+01  0.000000000E+00  0.00000E+00  9.000E+00
      -2    -1     0     0     0   502  0.000000000E+00  0.000000000E+00 -4.732663070E-01  4.732663070E-01  0.000000000E+00  0.00000E+00  9.000E+00
      23     2     1     2     0     0  8.240517685E-01 -9.243875709E-01  7.887384098E+00  8.567474676E+00  3.107610127E+00  0.00000E+00  9.000E+00
      11     1     3     3     0     0  5.356620184E-01 -2.067551156E+00  4.508651443E+00  4.988951761E+00  5.110000000E-04  0.00000E+00  9.000E+00
     -11     1     3     3     0     0  2.883897501E-01  1.143163585E+00  3.378732655E+00  3.578522914E+00  5.110000000E-04  0.00000E+00  9.000E+00
      -2     1     1     2     0   511 -1.953798688E-01  1.064706643E+00  8.262987142E+00  8.333590465E+00  0.000000000E+00  0.00000E+00  9.000E+00
      21     1     1     2   511   501 -6.286718997E-01 -1.403190720E-01  9.614161325E-01  1.157254846E+00  3.332000937E-08  0.00000E+00  9.000E+00
#rwgt            1          14   857341.07103299175                3      523420           0
<weights>
0.11145E+08
0.12827E+08
0.94845E+07
0.12213E+08
0.97913E+07
0.11448E+08
0.10414E+08
0.10915E+08
0.11418E+08
0.10807E+08
0.10757E+08
0.10975E+08
0.10942E+08
0.10812E+08
0.10773E+08
0.11171E+08
0.11327E+08
0.11534E+08
0.11510E+08
0.11491E+08
0.11513E+08
0.11568E+08
0.11555E+08
0.11490E+08
0.11284E+08
0.11381E+08
0.11169E+08
0.11531E+08
0.11339E+08
0.11560E+08
0.11559E+08
0.11159E+08
0.11261E+08
0.11142E+08
0.11184E+08
0.10971E+08
0.11361E+08
0.11211E+08
0.11008E+08
0.11179E+08
0.11113E+08
0.11230E+08
0.11056E+08
0.11549E+08
0.10777E+08
</weights>
</event>
<event>
      7  10001  1.11453E+07  6.88205E+00 -1.00000E+00  2.15722E-01
      21    -1     0     0   502   501  0.000000000E+00  0.000000000E+00  1.256936593E+01  1.256936593E+01  0.000000000E+00  0.00000E+00  9.000E+00
       4    -1     0     0   501     0  0.000000000E+00  0.000000000E+00 -2.163307287E+00  2.163307287E+00  0.000000000E+00  0.00000E+00  9.000E+00
      23     2     1     2     0     0  1.364679774E+00  9.716270313E-01 -8.864856953E-01  2.533466379E+00  1.681126120E+00  0.00000E+00  9.000E+00
      11     1     3     3     0     0  1.580691916E+00  4.192332209E-01 -2.345241799E-01  1.652073024E+00  5.110000000E-04  0.00000E+00  9.000E+00
     -11     1     3     3     0     0 -2.160121418E-01  5.523938104E-01 -6.519615154E-01  8.813933548E-01  5.110000000E-04  0.00000E+00  9.000E+00
       4     1     1     2   512     0  4.310333752E-01 -1.617586949E+00  1.583230192E+00  2.304125680E+00  0.000000000E+00  0.00000E+00  9.000E+00
      21     1     1     2   502   512 -1.795713149E+00  6.459599181E-01  9.709314143E+00  9.895081155E+00  3.576278687E-07  0.00000E+00  9.000E+00
#rwgt            2         195   221727.58000581589                3      550013           0
<weights>
0.11145E+08
0.11066E+08
0.10986E+08
0.13449E+08
0.88024E+07
0.91702E+07
0.13910E+08
0.11207E+08
0.11079E+08
0.10818E+08
0.10815E+08
0.10948E+08
0.11023E+08
0.10838E+08
0.10825E+08
0.11229E+08
0.11211E+08
0.11472E+08
0.11475E+08
0.11473E+08
0.11446E+08
0.11498E+08
0.11522E+08
0.11327E+08
0.11380E+08
0.11349E+08
0.11095E+08
0.11450E+08
0.11342E+08
0.11472E+08
0.11510E+08
0.11181E+08
0.11218E+08
0.11133E+08
0.11181E+08
0.11253E+08
0.11055E+08
0.11098E+08
0.11102E+08
0.11163E+08
0.11131E+08
0.11173E+08
0.11116E+08
0.11506E+08
0.10812E+08
</weights>
</event>
<event>
      7  10001  1.11453E+07  1.54643E+00 -1.00000E+00  4.09448E-01
      -4    -1     0     0     0   502  0.000000000E+00  0.000000000E+00  2.131086934E-01  2.131086934E-01  0.000000000E+00  0.00000E+00  9.000E+00
      21    -1     0     0   511   501  0.000000000E+00  0.000000000E+00 -5.278055781E+01  5.278055781E+01  0.000000000E+00  0.00000E+00  9.000E+00
      23     2     1     2     0     0  2.370630390E-01 -3.755100673E-01 -8.178345850E+00  8.265639238E+00  1.112764342E+00  0.00000E+00  9.000E+00
      11     1     3     3     0     0 -4.275289055E-01 -3.666433722E-05 -2.514246565E+00  2.550336648E+00  5.110000000E-04  0.00000E+00  9.000E+00
     -11     1     3     3     0     0  6.645919445E-01 -3.754734029E-01 -5.664099285E+00  5.715302590E+00  5.110000000E-04  0.00000E+00  9.000E+00
      -4     1     1     2     0   501  6.787209565E-01  1.621619033E+00 -4.851126547E+00  5.159819687E+00  0.000000000E+00  0.00000E+00  9.000E+00
      21     1     1     2   511   502 -9.157839955E-01 -1.246108966E+00 -3.953797672E+01  3.956820757E+01  4.768371582E-07  0.00000E+00  9.000E+00
#rwgt            1           3   343760.73486340226                3      551328           0
<weights>
0.11145E+08
0.13731E+08
0.85929E+07
0.12097E+08
0.95994E+07
0.12145E+08
0.93434E+07
0.11247E+08
0.11037E+08
0.10633E+08
0.10635E+08
0.10863E+08
0.10930E+08
0.10651E+08
0.10643E+08
0.11260E+08
0.11284E+08
0.11650E+08
0.11699E+08
0.11698E+08
0.11609E+08
0.11694E+08
0.11765E+08
0.11410E+08
0.11544E+08
0.11496E+08
0.11036E+08
0.11635E+08
0.11444E+08
0.11655E+08
0.11717E+08
0.11199E+08
0.11260E+08
0.11131E+08
0.11194E+08
0.11309E+08
0.11007E+08
0.11056E+08
0.11039E+08
0.11197E+08
0.11102E+08
0.11192E+08
0.11097E+08
0.11711E+08
0.10627E+08
</weights>
</event>
<event>
      6  10001 -1.11453E+07  8.94427E-01 -1.00000E+00  1.75984E-01
      21    -1     0     0   502   501  0.000000000E+00  0.000000000E+00  2.017794631E-02  2.017794631E-02  0.000000000E+00  0.00000E+00  9.000E+00
       2    -1     0     0   501     0  0.000000000E+00  0.000000000E+00 -4.272171610E+01  4.272171610E+01  0.000000000E+00  0.00000E+00  9.000E+00
      23     2     1     2     0     0  2.387043805E-01  2.533913233E-01 -3.835754025E+01  3.838396968E+01  1.380959041E+00  0.00000E+00  9.000E+00
      11     1     3     3     0     0  3.931302680E-01  5.033154007E-01 -8.144698780E+00  8.169699889E+00  5.110000000E-04  0.00000E+00  9.000E+00
     -11     1     3     3     0     0 -1.544258875E-01 -2.499240774E-01 -3.021284147E+01  3.021426979E+01  5.110000000E-04  0.00000E+00  9.000E+00
       2     1     1     2   502     0 -2.387043805E-01 -2.533913233E-01 -4.343997909E+00  4.357924365E+00  0.000000000E+00  0.00000E+00  9.000E+00
#rwgt            1          17  -8510846.3106185142                3      570977           0
<weights>
-.11145E+08
-.12592E+08
-.95703E+07
-.15304E+08
-.76682E+07
-.91702E+07
-.13910E+08
-.11191E+08
-.11100E+08
-.11056E+08
-.11099E+08
-.11141E+08
-.11051E+08
-.11089E+08
-.11098E+08
-.11095E+08
-.11212E+08
-.11089E+08
-.11323E+08
-.11334E+08
-.11079E+08
-.11192E+08
-.11191E+08
-.11236E+08
-.11125E+08
-.11133E+08
-.11147E+08
-.11328E+08
-.10938E+08
-.11188E+08
-.11169E+08
-.11144E+08
-.11159E+08
-.11069E+08
-.11254E+08
-.11119E+08
-.11172E+08
-.11015E+08
-.11276E+08
-.11079E+08
-.11199E+08
-.11209E+08
-.11078E+08
-.11206E+08
-.11083E+08
</weights>
</event>
<event>
      6  10001 -1.11453E+07  8.94427E-01 -1.00000E+00  2.29581E-01
       2    -1     0     0   501     0  0.000000000E+00  0.000000000E+00  4.372908353E+02  4.372908353E+02  0.000000000E+00  0.00000E+00  9.000E+00
      21    -1     0     0   502   501  0.000000000E+00  0.000000000E+00 -2.115628092E-02  2.115628092E-02  0.000000000E+00  0.00000E+00  9.000E+00
      23     2     1     2     0     0  7.197002889E-01  9.492604388E-01  4.190736275E+02  4.190769880E+02  1.182184527E+00  0.00000E+00  9.000E+00
      11     1     3     3     0     0  5.596208874E-01  1.232049485E+00  3.400143612E+02  3.400170539E+02  5.110000000E-04  0.00000E+00  9.000E+00
     -11     1     3     3     0     0  1.600794015E-01 -2.827890464E-01  7.905926630E+01  7.905993412E+01  5.110000000E-04  0.00000E+00  9.000E+00
       2     1     1     2   502     0 -7.197002889E-01 -9.492604388E-01  1.819605154E+01  1.823500358E+01  0.000000000E+00  0.00000E+00  9.000E+00
#rwgt            1          24  -43318245.117416829                3      572246           0
<weights>
-.11145E+08
-.11995E+08
-.10063E+08
-.14585E+08
-.80633E+07
-.91660E+07
-.13909E+08
-.11175E+08
-.11116E+08
-.10828E+08
-.10821E+08
-.10964E+08
-.11011E+08
-.10847E+08
-.10831E+08
-.11225E+08
-.11207E+08
-.11455E+08
-.11494E+08
-.11483E+08
-.11432E+08
-.11493E+08
-.11513E+08
-.11398E+08
-.11329E+08
-.11286E+08
-.11327E+08
-.11428E+08
-.11365E+08
-.11470E+08
-.11505E+08
-.11181E+08
-.11217E+08
-.11138E+08
-.11176E+08
-.11211E+08
-.11098E+08
-.11123E+08
-.11093E+08
-.11164E+08
-.11130E+08
-.11184E+08
-.11105E+08
-.11498E+08
-.10820E+08
</weights>
</event>
<event>
      6  10001 -1.11453E+07  8.94427E-01 -1.00000E+00  2.12124E-01
      21    -1     0     0   502   501  0.000000000E+00  0.000000000E+00  2.694948686E+01  2.694948686E+01  0.000000000E+00  0.00000E+00  9.000E+00
       3    -1     0     0   501     0  0.000000000E+00  0.000000000E+00 -2.020890121E-02  2.020890121E-02  0.000000000E+00  0.00000E+00  9.000E+00
      23     2     1     2     0     0  3.272384586E-01  1.485307168E-02  2.161274230E+01  2.164307798E+01  1.097674319E+00  0.00000E+00  9.000E+00
      11     1     3     3     0     0 -1.079111968E-01 -1.252366938E-01  1.809513148E+01  1.809588662E+01  5.110000000E-04  0.00000E+00  9.000E+00
     -11     1     3     3     0     0  4.351496554E-01  1.400897654E-01  3.517610819E+00  3.547191354E+00  5.110000000E-04  0.00000E+00  9.000E+00
       3     1     1     2   502     0 -3.272384586E-01 -1.485307168E-02  5.316535653E+00  5.326617780E+00  0.000000000E+00  0.00000E+00  9.000E+00
#rwgt            1          18  -241467.29566495115                3      574535           0
<weights>
-.11145E+08
-.12895E+08
-.92078E+07
-.15682E+08
-.73781E+07
-.91644E+07
-.13909E+08
-.11170E+08
-.11121E+08
-.10814E+08
-.10800E+08
-.10962E+08
-.10994E+08
-.10829E+08
-.10811E+08
-.11221E+08
-.11224E+08
-.11454E+08
-.11591E+08
-.11557E+08
-.11433E+08
-.11516E+08
-.11539E+08
-.11573E+08
-.11296E+08
-.11248E+08
-.12062E+08
-.11434E+08
-.11411E+08
-.11496E+08
-.11532E+08
-.11191E+08
-.11215E+08
-.11137E+08
-.11180E+08
-.11207E+08
-.11104E+08
-.11152E+08
-.11064E+08
-.11172E+08
-.11123E+08
-.11189E+08
-.11100E+08
-.11520E+08
-.10801E+08
</weights>
</event>
<event>
      7  10001  1.11453E+07  4.87027E+00 -1.00000E+00  2.42874E-01
      -2    -1     0     0     0   502  0.000000000E+00  0.000000000E+00  6.612975775E+01  6.612975775E+01  0.000000000E+00  0.00000E+00  9.000E+00
       2    -1     0     0   511     0  0.000000000E+00  0.000000000E+00 -1.327001866E+00  1.327001866E+00  0.000000000E+00  0.00000E+00  9.000E+00
      23     2     1     2     0     0 -7.625476216E-01 -1.603892937E+00  4.028132365E+01  4.038752455E+01  2.326618407E+00  0.00000E+00  9.000E+00
      11     1     3     3     0     0 -2.630324363E-01  5.780565988E-01  6.094961849E+00  6.127960157E+00  5.110000000E-04  0.00000E+00  9.000E+00
     -11     1     3     3     0     0 -4.995151853E-01 -2.181949536E+00  3.418636180E+01  3.425956440E+01  5.110000000E-04  0.00000E+00  9.000E+00
      21     1     1     2   501   502  3.091561390E+00 -2.673399645E+00  2.003447297E+01  2.044712510E+01  4.129530925E-07  0.00000E+00  9.000E+00
      21     1     1     2   511   501 -2.329013769E+00  4.277292582E+00  4.486959263E+00  6.622109966E+00  8.429369702E-08  0.00000E+00  9.000E+00
#rwgt            1           8   220457.12581319784                3      576230           0
<weights>
0.11145E+08
0.11951E+08
0.10272E+08
0.12613E+08
0.94611E+07
0.10452E+08
0.11942E+08
0.11031E+08
0.11293E+08
0.10817E+08
0.10788E+08
0.10970E+08
0.10975E+08
0.10829E+08
0.10801E+08
0.11198E+08
0.11267E+08
0.11492E+08
0.11508E+08
0.11493E+08
0.11469E+08
0.11532E+08
0.11534E+08
0.11444E+08
0.11307E+08
0.11326E+08
0.11247E+08
0.11482E+08
0.11353E+08
0.11517E+08
0.11533E+08
0.11173E+08
0.11236E+08
0.11135E+08
0.11186E+08
0.11096E+08
0.11227E+08
0.11169E+08
0.11050E+08
0.11171E+08
0.11122E+08
0.11205E+08
0.11082E+08
0.11525E+08
0.10798E+08
</weights>
</event>
<event>
      7  10001  1.11453E+07  8.94427E-01 -1.00000E+00  6.07649E-01
       2    -1     0     0   501     0  0.000000000E+00  0.000000000E+00  1.055354628E+01  1.055354628E+01  0.000000000E+00  0.00000E+00  9.000E+00
      21    -1     0     0   511   502  0.000000000E+00  0.000000000E+00 -6.950203762E-01  6.950203762E-01  0.000000000E+00  0.00000E+00  9.000E+00
      23     2     1     2     0     0  5.843170574E-02  3.750959279E-01  1.036176017E+01  1.044799336E+01  1.284671231E+00  0.00000E+00  9.000E+00
      11     1     3     3     0     0  2.473126550E-01 -1.977588016E-02  9.247682633E+00  9.251010159E+00  5.110000000E-04  0.00000E+00  9.000E+00
     -11     1     3     3     0     0 -1.888809493E-01  3.948718080E-01  1.114077538E+00  1.196983199E+00  5.110000000E-04  0.00000E+00  9.000E+00
      21     1     1     2   501   502 -1.553177453E-01 -4.558806702E-01 -4.632399706E-01  6.682380248E-01  1.024285487E-07  0.00000E+00  9.000E+00
       2     1     1     2   511     0  9.688603951E-02  8.078474235E-02 -3.999430027E-02  1.323352686E-01  0.000000000E+00  0.00000E+00  9.000E+00
#rwgt            2         249   889523.95941363776                3      577627           0
<weights>
0.11145E+08
0.11268E+08
0.10767E+08
0.13694E+08
0.86272E+07
0.91702E+07
0.13910E+08
0.11194E+08
0.11094E+08
0.10845E+08
0.10847E+08
0.10968E+08
0.11028E+08
0.10867E+08
0.10856E+08
0.11225E+08
0.11190E+08
0.11435E+08
0.11452E+08
0.11446E+08
0.11412E+08
0.11462E+08
0.11486E+08
0.11336E+08
0.11338E+08
0.11289E+08
0.11188E+08
0.11404E+08
0.11338E+08
0.11436E+08
0.11475E+08
0.11174E+08
0.11215E+08
0.11139E+08
0.11172E+08
0.11228E+08
0.11079E+08
0.11091E+08
0.11126E+08
0.11156E+08
0.11137E+08
0.11177E+08
0.11112E+08
0.11472E+08
0.10843E+08
</weights>
</event>
<event>
      7  10001  1.11453E+07  3.34056E+00 -1.00000E+00  2.79460E-01
      -1    -1     0     0     0   502  0.000000000E+00  0.000000000E+00  7.203226300E+01  7.203226300E+01  0.000000000E+00  0.00000E+00  9.000E+00
      21    -1     0     0   502   501  0.000000000E+00  0.000000000E+00 -5.078697224E-02  5.078697224E-02  0.000000000E+00  0.00000E+00  9.000E+00
      23     2     1     2     0     0 -3.464687960E-01  1.384629590E-01  4.905820686E+01  4.907265548E+01  1.130770856E+00  0.00000E+00  9.000E+00
      11     1     3     3     0     0 -4.386938407E-01 -4.273837022E-01  2.756869466E+01  2.757549700E+01  5.110000000E-04  0.00000E+00  9.000E+00
     -11     1     3     3     0     0  9.222504474E-02  5.658466612E-01  2.148951220E+01  2.149715848E+01  5.110000000E-04  0.00000E+00  9.000E+00
      -1     1     1     2     0   511 -1.780227758E-01 -7.541036978E-04  2.126435987E+01  2.126510507E+01  0.000000000E+00  0.00000E+00  9.000E+00
      21     1     1     2   511   501  5.244915718E-01 -1.377088553E-01  1.658909290E+00  1.745289423E+00  7.300048300E-08  0.00000E+00  9.000E+00
#rwgt            2         131   1378156.8905702694                3      580595           0
<weights>
0.11145E+08
0.11351E+08
0.10664E+08
0.13796E+08
0.85444E+07
0.91702E+07
0.13910E+08
0.11171E+08
0.11120E+08
0.10817E+08
0.10805E+08
0.10959E+08
0.11002E+08
0.10834E+08
0.10816E+08
0.11227E+08
0.11215E+08
0.11471E+08
0.11513E+08
0.11501E+08
0.11447E+08
0.11512E+08
0.11530E+08
0.11420E+08
0.11330E+08
0.11290E+08
0.11353E+08
0.11444E+08
0.11379E+08
0.11490E+08
0.11524E+08
0.11186E+08
0.11217E+08
0.11137E+08
0.11179E+08
0.11207E+08
0.11103E+08
0.11142E+08
0.11073E+08
0.11169E+08
0.11125E+08
0.11186E+08
0.11102E+08
0.11514E+08
0.10806E+08
</weights>
</event>
<event>
      7  10001  1.11453E+07  4.36365E+00 -1.00000E+00  2.52036E-01
      -2    -1     0     0     0   502  0.000000000E+00  0.000000000E+00  3.688658514E+01  3.688658514E+01  0.000000000E+00  0.00000E+00  9.000E+00
      21    -1     0     0   502   501  0.000000000E+00  0.000000000E+00 -2.297371592E-01  2.297371592E-01  0.000000000E+00  0.00000E+00  9.000E+00
      23     2     1     2     0     0  5.887743201E-01 -7.347579043E-02  3.502375778E+01  3.504903556E+01  1.191314643E+00  0.00000E+00  9.000E+00
      11     1     3     3     0     0 -1.260405009E-01 -3.505354846E-01  4.417542973E+00  4.433220896E+00  5.110000000E-04  0.00000E+00  9.000E+00
     -11     1     3     3     0     0  7.148148210E-01  2.770596942E-01  3.060621481E+01  3.061581466E+01  5.110000000E-04  0.00000E+00  9.000E+00
      -2     1     1     2     0   512  1.671233412E-01 -6.429800993E-02  1.140773069E+00  1.154741374E+00  0.000000000E+00  0.00000E+00  9.000E+00
      21     1     1     2   512   501 -7.558976613E-01  1.377738004E-01  4.923171362E-01  9.125453726E-01  2.414264045E-08  0.00000E+00  9.000E+00
#rwgt            2         101   492760.82367592503                3      581074           0
<weights>
0.11145E+08
0.11236E+08
0.10789E+08
0.13656E+08
0.86443E+07
0.91702E+07
0.13910E+08
0.11185E+08
0.11104E+08
0.10831E+08
0.10826E+08
0.10963E+08
0.11015E+08
0.10851E+08
0.10836E+08
0.11227E+08
0.11201E+08
0.11452E+08
0.11480E+08
0.11472E+08
0.11429E+08
0.11486E+08
0.11507E+08
0.11372E+08
0.11336E+08
0.11290E+08
0.11250E+08
0.11423E+08
0.11357E+08
0.11462E+08
0.11499E+08
0.11180E+08
0.11216E+08
0.11138E+08
0.11176E+08
0.11219E+08
0.11089E+08
0.11115E+08
0.11101E+08
0.11162E+08
0.11131E+08
0.11182E+08
0.11107E+08
0.11493E+08
0.10825E+08
</weights>
</event>
<event>
      7  10001  1.11453E+07  9.93191E-01 -1.00000E+00  5.65229E-01
       2    -1     0     0   501     0  0.000000000E+00  0.000000000E+00  2.550922982E-01  2.550922982E-01  0.000000000E+00  0.00000E+00  9.000E+00
      21    -1     0     0   511   501  0.000000000E+00  0.000000000E+00 -2.181036252E+02  2.181036252E+02  0.000000000E+00  0.00000E+00  9.000E+00
      23     2     1     2     0     0 -3.384457583E-01 -1.987009231E-01 -8.132081574E+00  8.587882909E+00  2.732572881E+00  0.00000E+00  9.000E+00
      11     1     3     3     0     0  2.994451155E-02 -1.453010639E+00 -4.288772193E+00  4.528322401E+00  5.110000000E-04  0.00000E+00  9.000E+00
     -11     1     3     3     0     0 -3.683902698E-01  1.254309716E+00 -3.843309381E+00  4.059560508E+00  5.110000000E-04  0.00000E+00  9.000E+00
       2     1     1     2   502     0 -6.511417822E-01  2.832242518E-01 -4.824334702E+00  4.876310789E+00  0.000000000E+00  0.00000E+00  9.000E+00
      21     1     1     2   511   502  9.895875405E-01 -8.452332876E-02 -2.048921166E+02  2.048945238E+02  2.697398305E-06  0.00000E+00  9.000E+00
#rwgt            1          24   552795.47912920953                3      581553           0
<weights>
0.11164E+08
0.14364E+08
0.79876E+07
0.11774E+08
0.10060E+08
0.13003E+08
0.80720E+07
0.11293E+08
0.11026E+08
0.10500E+08
0.10496E+08
0.10808E+08
0.10872E+08
0.10513E+08
0.10503E+08
0.11303E+08
0.11365E+08
0.11828E+08
0.11902E+08
0.11900E+08
0.11775E+08
0.11886E+08
0.11989E+08
0.11509E+08
0.11697E+08
0.11646E+08
0.11011E+08
0.11812E+08
0.11562E+08
0.11839E+08
0.11917E+08
0.11235E+08
0.11314E+08
0.11145E+08
0.11227E+08
0.11371E+08
0.10988E+08
0.11074E+08
0.10974E+08
0.11251E+08
0.11089E+08
0.11226E+08
0.11099E+08
0.11905E+08
0.10487E+08
</weights>
</event>
<event>
      7  10001  1.11453E+07  8.94427E-01 -1.00000E+00  6.07649E-01
      21    -1     0     0   501   511  0.000000000E+00  0.000000000E+00  1.824817396E+00  1.824817396E+00  0.000000000E+00  0.00000E+00  9.000E+00
      -2    -1     0     0     0   502  0.000000000E+00  0.000000000E+00 -5.728227571E+00  5.728227571E+00  0.000000000E+00  0.00000E+00  9.000E+00
      23     2     1     2     0     0 -8.502130940E-02  3.220992637E-01 -5.521531472E+00  5.639699306E+00  1.099055004E+00  0.00000E+00  9.000E+00
      11     1     3     3     0     0 -2.219737297E-01 -2.983572705E-01 -3.523522917E+00  3.543092351E+00  5.110000000E-04  0.00000E+00  9.000E+00
     -11     1     3     3     0     0  1.369524203E-01  6.204565343E-01 -1.998008555E+00  2.096606955E+00  5.110000000E-04  0.00000E+00  9.000E+00
      21     1     1     2   501   502  8.980109507E-02 -3.671681782E-01  1.741425367E+00  1.781976155E+00  2.210199382E-07  0.00000E+00  9.000E+00
      -2     1     1     2     0   511 -4.779785670E-03  4.506891443E-02 -1.233040704E-01  1.313695063E-01  0.000000000E+00  0.00000E+00  9.000E+00
#rwgt            2         161   957811.88015137112                3      679518           0
<weights>
0.11145E+08
0.11333E+08
0.10702E+08
0.13773E+08
0.85751E+07
0.91702E+07
0.13910E+08
0.11145E+08
0.11141E+08
0.10865E+08
0.10869E+08
0.10987E+08
0.11013E+08
0.10887E+08
0.10878E+08
0.11164E+08
0.11263E+08
0.11427E+08
0.11404E+08
0.11391E+08
0.11413E+08
0.11433E+08
0.11461E+08
0.11315E+08
0.11324E+08
0.11371E+08
0.11044E+08
0.11414E+08
0.11245E+08
0.11408E+08
0.11436E+08
0.11131E+08
0.11248E+08
0.11167E+08
0.11144E+08
0.11080E+08
0.11229E+08
0.11044E+08
0.11157E+08
0.11148E+08
0.11140E+08
0.11209E+08
0.11078E+08
0.11445E+08
0.10868E+08
</weights>
</event>
<event>
      6  10001 -1.11453E+07  8.94427E-01 -1.00000E+00  2.15247E-01
      -4    -1     0     0     0   502  0.000000000E+00  0.000000000E+00  1.797237778E-02  1.797237778E-02  0.000000000E+00  0.00000E+00  9.000E+00
       4    -1     0     0   501     0  0.000000000E+00  0.000000000E+00 -5.158569495E+01  5.158569495E+01  0.000000000E+00  0.00000E+00  9.000E+00
      23     2     1     2     0     0  2.747701467E-01  2.093778895E-01 -4.548743732E+01  4.551357648E+01  1.503114338E+00  0.00000E+00  9.000E+00
      11     1     3     3     0     0  3.054496208E-01  7.267001230E-01 -1.421116423E+01  1.423301028E+01  5.110000000E-04  0.00000E+00  9.000E+00
     -11     1     3     3     0     0 -3.067947412E-02 -5.173222335E-01 -3.127627309E+01  3.128056620E+01  5.110000000E-04  0.00000E+00  9.000E+00
      21     1     1     2   501   502 -2.747701467E-01 -2.093778895E-01 -6.080285255E+00  6.090090847E+00  8.429369702E-08  0.00000E+00  9.000E+00
#rwgt            1           4  -639268.49870053271                3      680434           0
<weights>
-.11145E+08
-.13187E+08
-.89858E+07
-.16027E+08
-.71999E+07
-.91702E+07
-.13910E+08
-.11229E+08
-.11063E+08
-.10970E+08
-.11058E+08
-.10978E+08
-.11195E+08
-.11051E+08
-.11065E+08
-.11178E+08
-.11094E+08
-.11211E+08
-.11195E+08
-.11189E+08
-.11212E+08
-.11205E+08
-.11217E+08
-.11137E+08
-.11252E+08
-.11232E+08
-.11089E+08
-.11198E+08
-.11120E+08
-.11145E+08
-.11209E+08
-.11085E+08
-.11228E+08
-.11170E+08
-.11117E+08
-.11299E+08
-.11006E+08
-.10775E+08
-.11551E+08
-.11051E+08
-.11233E+08
-.11114E+08
-.11179E+08
-.11258E+08
-.11023E+08
</weights>
</event>
<event>
      7  10001  1.11453E+07  1.30685E+00 -1.00000E+00  4.68994E-01
      21    -1     0     0   502   501  0.000000000E+00  0.000000000E+00  4.472362178E+01  4.472362178E+01  0.000000000E+00  0.00000E+00  9.000E+00
       3    -1     0     0   501     0  0.000000000E+00  0.000000000E+00 -2.055332636E-01  2.055332636E-01  0.000000000E+00  0.00000E+00  9.000E+00
      23     2     1     2     0     0  7.653475865E-01  1.304931340E+00  4.011920598E+01  4.018694550E+01  1.775189249E+00  0.00000E+00  9.000E+00
      11     1     3     3     0     0  2.809740973E-01 -1.189782658E-01  2.293909879E+01  2.294112805E+01  5.110000000E-04  0.00000E+00  9.000E+00
     -11     1     3     3     0     0  4.843734892E-01  1.423909606E+00  1.718010719E+01  1.724581745E+01  5.110000000E-04  0.00000E+00  9.000E+00
       3     1     1     2   511     0 -5.528780562E-01 -1.188296826E-01  1.329391051E+00  1.444671314E+00  0.000000000E+00  0.00000E+00  9.000E+00
      21     1     1     2   502   511 -2.124695303E-01 -1.186101657E+00  3.069491486E+00  3.297538237E+00  4.214684851E-08  0.00000E+00  9.000E+00
#rwgt            1          18   34946.629102940336                3      683686           0
<weights>
0.11145E+08
0.11999E+08
0.10190E+08
0.12654E+08
0.94523E+07
0.10488E+08
0.11886E+08
0.11176E+08
0.11112E+08
0.10796E+08
0.10780E+08
0.10979E+08
0.10955E+08
0.10809E+08
0.10791E+08
0.11206E+08
0.11233E+08
0.11369E+08
0.11885E+08
0.11784E+08
0.11361E+08
0.11533E+08
0.11578E+08
0.12096E+08
0.11119E+08
0.11001E+08
0.13980E+08
0.11371E+08
0.11572E+08
0.11516E+08
0.11569E+08
0.11213E+08
0.11201E+08
0.11140E+08
0.11180E+08
0.11213E+08
0.11096E+08
0.11186E+08
0.11028E+08
0.11183E+08
0.11113E+08
0.11198E+08
0.11090E+08
0.11543E+08
0.10781E+08
</weights>
</event>
<event>
      7  10001  1.11453E+07  8.94427E-01 -1.00000E+00  6.07649E-01
       3    -1     0     0   501     0  0.000000000E+00  0.000000000E+00  2.816911057E+00  2.816911057E+00  0.000000000E+00  0.00000E+00  9.000E+00
      21    -1     0     0   502   501  0.000000000E+00  0.000000000E+00 -1.030384634E+00  1.030384634E+00  0.000000000E+00  0.00000E+00  9.000E+00
      23     2     1     2     0     0  5.017361938E-02  2.763945972E-01  2.654530109E+00  2.866525800E+00  1.044762506E+00  0.00000E+00  9.000E+00
      11     1     3     3     0     0 -3.709956169E-02  6.545734312E-01  1.278452186E+00  1.436761291E+00  5.110000000E-04  0.00000E+00  9.000E+00
     -11     1     3     3     0     0  8.727318107E-02 -3.781788340E-01  1.376077923E+00  1.429764509E+00  5.110000000E-04  0.00000E+00  9.000E+00
       3     1     1     2   512     0  1.180438822E-01 -8.933902217E-02 -1.168206644E-01  1.885812468E-01  0.000000000E+00  0.00000E+00  9.000E+00
      21     1     1     2   502   512 -1.682175016E-01 -1.870555750E-01 -7.511830219E-01  7.921886445E-01  9.599401598E-08  0.00000E+00  9.000E+00
#rwgt            2         278   238887.97586689852                3      702194           0
<weights>
0.11145E+08
0.11689E+08
0.10296E+08
0.14207E+08
0.82495E+07
0.91702E+07
0.13910E+08
0.11197E+08
0.11091E+08
0.10851E+08
0.10855E+08
0.10970E+08
0.11033E+08
0.10874E+08
0.10864E+08
0.11225E+08
0.11186E+08
0.11427E+08
0.11441E+08
0.11435E+08
0.11405E+08
0.11452E+08
0.11477E+08
0.11322E+08
0.11338E+08
0.11289E+08
0.11168E+08
0.11396E+08
0.11329E+08
0.11425E+08
0.11465E+08
0.11171E+08
0.11214E+08
0.11139E+08
0.11171E+08
0.11231E+08
0.11076E+08
0.11081E+08
0.11136E+08
0.11153E+08
0.11139E+08
0.11176E+08
0.11114E+08
0.11464E+08
0.10850E+08
</weights>
</event>
<event>
      6  10001 -1.11453E+07  8.94427E-01 -1.00000E+00  5.96725E-01
      21    -1     0     0   502   501  0.000000000E+00  0.000000000E+00  1.144459872E-02  1.144459872E-02  0.000000000E+00  0.00000E+00  9.000E+00
       2    -1     0     0   501     0  0.000000000E+00  0.000000000E+00 -8.768863417E+02  8.768863417E+02  0.000000000E+00  0.00000E+00  9.000E+00
      23     2     1     2     0     0 -3.162968090E-01  3.555855916E-01 -8.476551300E+02  8.476741439E+02  5.657593128E+00  0.00000E+00  9.000E+00
      11     1     3     3     0     0  1.023897433E+00 -1.492922796E+00 -6.910454792E+02  6.910478504E+02  5.110000000E-04  0.00000E+00  9.000E+00
     -11     1     3     3     0     0 -1.340194242E+00  1.848508388E+00 -1.566096507E+02  1.566262935E+02  5.110000000E-04  0.00000E+00  9.000E+00
       2     1     1     2   502     0  3.162968090E-01 -3.555855916E-01 -2.921976711E+01  2.922364239E+01  0.000000000E+00  0.00000E+00  9.000E+00
#rwgt            1          17  -90444863.695699051                3      703471           0
<weights>
-.11145E+08
-.11132E+08
-.11054E+08
-.13530E+08
-.88567E+07
-.91702E+07
-.13910E+08
-.11137E+08
-.11153E+08
-.11163E+08
-.11135E+08
-.10909E+08
-.11407E+08
-.11152E+08
-.11145E+08
-.10854E+08
-.11566E+08
-.11600E+08
-.10533E+08
-.10432E+08
-.11665E+08
-.11127E+08
-.11161E+08
-.10905E+08
-.11362E+08
-.11653E+08
-.10844E+08
-.10513E+08
-.11895E+08
-.11046E+08
-.11215E+08
-.11180E+08
-.11106E+08
-.11805E+08
-.10372E+08
-.11041E+08
-.11242E+08
-.11113E+08
-.11191E+08
-.11338E+08
-.10976E+08
-.11113E+08
-.11179E+08
-.11140E+08
-.11151E+08
</weights>
</event>
<event>
      6  10001 -1.11453E+07  8.94427E-01 -1.00000E+00  6.24916E-01
       2    -1     0     0   501     0  0.000000000E+00  0.000000000E+00  3.690948952E+01  3.690948952E+01  0.000000000E+00  0.00000E+00  9.000E+00
      21    -1     0     0   502   501  0.000000000E+00  0.000000000E+00 -2.487760602E-02  2.487760602E-02  0.000000000E+00  0.00000E+00  9.000E+00
      23     2     1     2     0     0 -5.060355979E-01 -3.032463642E-01  2.550145955E+01  2.553593793E+01  1.188131485E+00  0.00000E+00  9.000E+00
      11     1     3     3     0     0  1.408394664E-01  3.158937615E-01  3.709320852E+00  3.725410859E+00  5.110000000E-04  0.00000E+00  9.000E+00
     -11     1     3     3     0     0 -6.468750643E-01 -6.191401257E-01  2.179213870E+01  2.181052707E+01  5.110000000E-04  0.00000E+00  9.000E+00
       2     1     1     2   502     0  5.060355979E-01  3.032463642E-01  1.138315237E+01  1.139842920E+01  0.000000000E+00  0.00000E+00  9.000E+00
#rwgt            1          24  -49458054.374708116                3      704593           0
<weights>
-.11145E+08
-.12794E+08
-.93280E+07
-.15571E+08
-.74748E+07
-.91574E+07
-.13908E+08
-.11165E+08
-.11128E+08
-.10814E+08
-.10799E+08
-.10959E+08
-.10998E+08
-.10830E+08
-.10811E+08
-.11227E+08
-.11219E+08
-.11475E+08
-.11523E+08
-.11509E+08
-.11451E+08
-.11518E+08
-.11535E+08
-.11437E+08
-.11328E+08
-.11289E+08
-.11398E+08
-.11449E+08
-.11385E+08
-.11497E+08
-.11530E+08
-.11188E+08
-.11218E+08
-.11137E+08
-.11180E+08
-.11203E+08
-.11108E+08
-.11150E+08
-.11066E+08
-.11171E+08
-.11124E+08
-.11188E+08
-.11101E+08
-.11520E+08
-.10802E+08
</weights>
</event>
<event>
      6  10001 -1.11453E+07  8.94427E-01 -1.00000E+00  3.39438E-01
      21    -1     0     0   502   501  0.000000000E+00  0.000000000E+00  1.711503363E+02  1.711503363E+02  0.000000000E+00  0.00000E+00  9.000E+00
       4    -1     0     0   501     0  0.000000000E+00  0.000000000E+00 -1.966999088E-02  1.966999088E-02  0.000000000E+00  0.00000E+00  9.000E+00
      23     2     1     2     0     0 -7.418176347E-01 -6.512288489E-01  6.295268032E+01  6.298751674E+01  1.847407206E+00  0.00000E+00  9.000E+00
      11     1     3     3     0     0 -6.991807896E-01 -1.282091696E+00  4.266328152E+01  4.268826774E+01  5.110000000E-04  0.00000E+00  9.000E+00
     -11     1     3     3     0     0 -4.263684505E-02  6.308628472E-01  2.028939880E+01  2.029924899E+01  5.110000000E-04  0.00000E+00  9.000E+00
       4     1     1     2   502     0  7.418176347E-01  6.512288489E-01  1.081779860E+02  1.081824896E+02  0.000000000E+00  0.00000E+00  9.000E+00
#rwgt            1          19  -632093.51645720529                3      709675           0
<weights>
-.11145E+08
-.12253E+08
-.97397E+07
-.14903E+08
-.78044E+07
-.91630E+07
-.13909E+08
-.11169E+08
-.11123E+08
-.10811E+08
-.10795E+08
-.10957E+08
-.10997E+08
-.10826E+08
-.10806E+08
-.11228E+08
-.11220E+08
-.11480E+08
-.11524E+08
-.11511E+08
-.11455E+08
-.11523E+08
-.11540E+08
-.11432E+08
-.11332E+08
-.11293E+08
-.11367E+08
-.11454E+08
-.11387E+08
-.11503E+08
-.11535E+08
-.11190E+08
-.11217E+08
-.11136E+08
-.11181E+08
-.11206E+08
-.11105E+08
-.11155E+08
-.11061E+08
-.11172E+08
-.11123E+08
-.11188E+08
-.11101E+08
-.11524E+08
-.10798E+08
</weights>
</event>
<event>
      7  10001  1.11453E+07  2.02399E+00 -1.00000E+00  3.51775E-01
       2    -1     0     0   501     0  0.000000000E+00  0.000000000E+00  5.402318120E-01  5.402318120E-01  0.000000000E+00  0.00000E+00  9.000E+00
      21    -1     0     0   502   501  0.000000000E+00  0.000000000E+00 -5.180918851E+00  5.180918851E+00  0.000000000E+00  0.00000E+00  9.000E+00
      23     2     1     2     0     0 -1.011372208E+00  4.589321505E-01 -1.751134014E+00  2.449608502E+00  1.304077842E+00  0.00000E+00  9.000E+00
      11     1     3     3     0     0  1.806663470E-01  2.576938980E-01 -9.463881913E-01  9.973451477E-01  5.110000000E-04  0.00000E+00  9.000E+00
     -11     1     3     3     0     0 -1.192038555E+00  2.012382525E-01 -8.047458231E-01  1.452263355E+00  5.110000000E-04  0.00000E+00  9.000E+00
       2     1     1     2   511     0  1.093784063E-01  7.495861524E-04  7.911961692E-02  1.349967089E-01  0.000000000E+00  0.00000E+00  9.000E+00
      21     1     1     2   502   511  9.019938017E-01 -4.596817366E-01 -2.968672642E+00  3.136545452E+00  7.300048300E-08  0.00000E+00  9.000E+00
#rwgt            1          24   931272.47188824578                3      710340           0
<weights>
0.11145E+08
0.13180E+08
0.91556E+07
0.11705E+08
0.10017E+08
0.12022E+08
0.95316E+07
0.11218E+08
0.11066E+08
0.10682E+08
0.10654E+08
0.10885E+08
0.10942E+08
0.10692E+08
0.10668E+08
0.11261E+08
0.11273E+08
0.11634E+08
0.11651E+08
0.11649E+08
0.11594E+08
0.11681E+08
0.11711E+08
0.11440E+08
0.11473E+08
0.11440E+08
0.11098E+08
0.11613E+08
0.11457E+08
0.11656E+08
0.11697E+08
0.11219E+08
0.11234E+08
0.11122E+08
0.11205E+08
0.11269E+08
0.11044E+08
0.11171E+08
0.10966E+08
0.11201E+08
0.11098E+08
0.11194E+08
0.11094E+08
0.11678E+08
0.10659E+08
</weights>
</event>
<event>
      6  10001 -1.11453E+07  8.94427E-01 -1.00000E+00  3.95589E-01
       2    -1     0     0   501     0  0.000000000E+00  0.000000000E+00  1.149499229E+02  1.149499229E+02  0.000000000E+00  0.00000E+00  9.000E+00
      -2    -1     0     0     0   502  0.000000000E+00  0.000000000E+00 -1.971875561E-02  1.971875561E-02  0.000000000E+00  0.00000E+00  9.000E+00
      23     2     1     2     0     0  3.034843138E-01  3.575444538E-01  1.677547477E+01  1.681379191E+01  1.033007194E+00  0.00000E+00  9.000E+00
      11     1     3     3     0     0  1.709883173E-01  5.243983822E-01  4.147014785E+00  4.183534697E+00  5.110000000E-04  0.00000E+00  9.000E+00
     -11     1     3     3     0     0  1.324959965E-01 -1.668539284E-01  1.262845999E+01  1.263025722E+01  5.110000000E-04  0.00000E+00  9.000E+00
      21     1     1     2   501   502 -3.034843138E-01 -3.575444538E-01  9.815472940E+01  9.815584977E+01  1.348699152E-06  0.00000E+00  9.000E+00
#rwgt            1          23  -1114027.5462439319                3      779445           0
<weights>
-.11145E+08
-.12749E+08
-.93646E+07
-.15505E+08
-.75037E+07
-.91642E+07
-.13909E+08
-.11140E+08
-.11163E+08
-.10818E+08
-.10802E+08
-.10962E+08
-.10997E+08
-.10834E+08
-.10814E+08
-.11222E+08
-.11224E+08
-.11474E+08
-.11511E+08
-.11498E+08
-.11450E+08
-.11514E+08
-.11530E+08
-.11427E+08
-.11324E+08
-.11296E+08
-.11341E+08
-.11449E+08
-.11375E+08
-.11494E+08
-.11525E+08
-.11183E+08
-.11221E+08
-.11137E+08
-.11180E+08
-.11186E+08
-.11127E+08
-.11147E+08
-.11070E+08
-.11169E+08
-.11125E+08
-.11190E+08
-.11099E+08
-.11515E+08
-.10805E+08
</weights>
</event>
<event>
      6  10001 -1.11453E+07  8.94427E-01 -1.00000E+00  1.85815E-01
      -5    -1     0     0     0   502  0.000000000E+00  0.000000000E+00  4.088958662E+01  4.088958662E+01  0.000000000E+00  0.00000E+00  9.000E+00
      21    -1     0     0   502   501  0.000000000E+00  0.000000000E+00 -1.637539404E-02  1.637539404E-02  0.000000000E+00  0.00000E+00  9.000E+00
      23     2     1     2     0     0  1.207495762E-02  3.100361449E-01  3.542335844E+01  3.544728419E+01  1.264660012E+00  0.00000E+00  9.000E+00
      11     1     3     3     0     0  4.766762928E-01 -5.249247836E-02  6.399288739E+00  6.417232454E+00  5.110000000E-04  0.00000E+00  9.000E+00
     -11     1     3     3     0     0 -4.646013352E-01  3.625286233E-01  2.902406970E+01  2.903005173E+01  5.110000000E-04  0.00000E+00  9.000E+00
      -5     1     1     2     0   501 -1.207495762E-02 -3.100361449E-01  5.449852783E+00  5.458677823E+00  0.000000000E+00  0.00000E+00  9.000E+00
#rwgt            1           1  -410694.45382054441                3      783510           0
<weights>
-.11146E+08
-.13859E+08
-.83004E+07
-.16883E+08
-.66517E+07
-.91500E+07
-.13909E+08
-.11176E+08
-.11117E+08
-.10831E+08
-.10824E+08
-.10965E+08
-.11013E+08
-.10850E+08
-.10834E+08
-.11226E+08
-.11207E+08
-.11454E+08
-.11493E+08
-.11482E+08
-.11432E+08
-.11491E+08
-.11512E+08
-.11397E+08
-.11330E+08
-.11286E+08
-.11328E+08
-.11426E+08
-.11364E+08
-.11468E+08
-.11504E+08
-.11182E+08
-.11218E+08
-.11140E+08
-.11177E+08
-.11213E+08
-.11099E+08
-.11122E+08
-.11097E+08
-.11165E+08
-.11131E+08
-.11185E+08
-.11107E+08
-.11497E+08
-.10823E+08
</weights>
</event>
<event>
      6  10001 -1.11453E+07  8.94427E-01 -1.00000E+00  2.79546E-01
       2    -1     0     0   501     0  0.000000000E+00  0.000000000E+00  1.787792061E+02  1.787792061E+02  0.000000000E+00  0.00000E+00  9.000E+00
      21    -1     0     0   502   501  0.000000000E+00  0.000000000E+00 -2.227781260E-02  2.227781260E-02  0.000000000E+00  0.00000E+00  9.000E+00
      23     2     1     2     0     0 -3.861912377E-01 -2.253121172E-01  1.763087508E+02  1.763128132E+02  1.110206275E+00  0.00000E+00  9.000E+00
      11     1     3     3     0     0 -2.738932025E-04 -4.600540984E-01  3.151485891E+01  3.151821668E+01  5.110000000E-04  0.00000E+00  9.000E+00
     -11     1     3     3     0     0 -3.859173445E-01  2.347419811E-01  1.447938919E+02  1.447945965E+02  5.110000000E-04  0.00000E+00  9.000E+00
       2     1     1     2   502     0  3.861912377E-01  2.253121172E-01  2.448177446E+00  2.488670736E+00  0.000000000E+00  0.00000E+00  9.000E+00
#rwgt            1          24  -49108799.487397134                3      784248           0
<weights>
-.11145E+08
-.12278E+08
-.98238E+07
-.14933E+08
-.78717E+07
-.91640E+07
-.13909E+08
-.11176E+08
-.11116E+08
-.10832E+08
-.10828E+08
-.10966E+08
-.11014E+08
-.10852E+08
-.10838E+08
-.11224E+08
-.11203E+08
-.11448E+08
-.11487E+08
-.11476E+08
-.11426E+08
-.11484E+08
-.11506E+08
-.11391E+08
-.11327E+08
-.11282E+08
-.11326E+08
-.11419E+08
-.11359E+08
-.11460E+08
-.11497E+08
-.11179E+08
-.11217E+08
-.11139E+08
-.11174E+08
-.11212E+08
-.11097E+08
-.11114E+08
-.11105E+08
-.11162E+08
-.11132E+08
-.11183E+08
-.11106E+08
-.11491E+08
-.10826E+08
</weights>
</event>
<event>
      6  10001  1.11453E+07  8.94427E-01 -1.00000E+00  6.04656E-01
      -4    -1     0     0     0   502  0.000000000E+00  0.000000000E+00  6.235325102E+00  6.235325102E+00  0.000000000E+00  0.00000E+00  9.000E+00
      21    -1     0     0   502   501  0.000000000E+00  0.000000000E+00 -2.681630597E+00  2.681630597E+00  0.000000000E+00  0.00000E+00  9.000E+00
      23     2     1     2     0     0 -4.796532965E-01  8.710158833E-02  5.914005429E+00  6.506826734E+00  2.669396928E+00  0.00000E+00  9.000E+00
      11     1     3     3     0     0 -1.062064180E+00 -5.118591922E-01  1.072636024E+00  1.593903528E+00  5.110000000E-04  0.00000E+00  9.000E+00
     -11     1     3     3     0     0  5.824108835E-01  5.989607805E-01  4.841369404E+00  4.912923206E+00  5.110000000E-04  0.00000E+00  9.000E+00
      -4     1     1     2     0   501  4.796532965E-01 -8.710158833E-02 -2.360310924E+00  2.410128965E+00  0.000000000E+00  0.00000E+00  9.000E+00
#rwgt            1           3   2278313.3854866922                3      785304           0
<weights>
0.11133E+08
0.14716E+08
0.75433E+07
0.13533E+08
0.85933E+07
0.12046E+08
0.97175E+07
0.11202E+08
0.11059E+08
0.10631E+08
0.10597E+08
0.10866E+08
0.10894E+08
0.10642E+08
0.10610E+08
0.11254E+08
0.11278E+08
0.11667E+08
0.11688E+08
0.11685E+08
0.11623E+08
0.11725E+08
0.11742E+08
0.11490E+08
0.11459E+08
0.11415E+08
0.11159E+08
0.11643E+08
0.11493E+08
0.11702E+08
0.11740E+08
0.11217E+08
0.11230E+08
0.11115E+08
0.11193E+08
0.11243E+08
0.11050E+08
0.11206E+08
0.10936E+08
0.11207E+08
0.11071E+08
0.11192E+08
0.11072E+08
0.11716E+08
0.10603E+08
</weights>
</event>
<event>
      7  10001  1.11453E+07  3.74581E+00 -1.00000E+00  2.66998E-01
       2    -1     0     0   501     0  0.000000000E+00  0.000000000E+00  3.956722288E+02  3.956722288E+02  0.000000000E+00  0.00000E+00  9.000E+00
      21    -1     0     0   502   501  0.000000000E+00  0.000000000E+00 -1.444574510E-01  1.444574510E-01  0.000000000E+00  0.00000E+00  9.000E+00
      23     2     1     2     0     0  1.714717103E+00  7.216139215E-01  3.862140811E+02  3.862207429E+02  1.298030904E+00  0.00000E+00  9.000E+00
      11     1     3     3     0     0  4.452695219E-01 -1.764056875E-01  3.569693464E+01  3.570014744E+01  5.110000000E-04  0.00000E+00  9.000E+00
     -11     1     3     3     0     0  1.269447581E+00  8.980196091E-01  3.505171464E+02  3.505205955E+02  5.110000000E-04  0.00000E+00  9.000E+00
       2     1     1     2   511     0 -5.545993843E-01 -2.603563424E-01  6.357341038E+00  6.386795048E+00  0.000000000E+00  0.00000E+00  9.000E+00
      21     1     1     2   502   511 -1.160117719E+00 -4.612575791E-01  2.956349193E+00  3.209148209E+00  1.404824704E-06  0.00000E+00  9.000E+00
#rwgt            2         248   3236008.1532237525                3      840395           0
<weights>
0.11145E+08
0.10601E+08
0.11550E+08
0.12885E+08
0.92543E+07
0.91702E+07
0.13910E+08
0.11181E+08
0.11108E+08
0.10827E+08
0.10819E+08
0.10962E+08
0.11011E+08
0.10845E+08
0.10829E+08
0.11227E+08
0.11206E+08
0.11459E+08
0.11491E+08
0.11481E+08
0.11435E+08
0.11495E+08
0.11515E+08
0.11387E+08
0.11334E+08
0.11290E+08
0.11279E+08
0.11430E+08
0.11365E+08
0.11472E+08
0.11507E+08
0.11182E+08
0.11216E+08
0.11138E+08
0.11177E+08
0.11215E+08
0.11093E+08
0.11124E+08
0.11092E+08
0.11165E+08
0.11129E+08
0.11183E+08
0.11106E+08
0.11500E+08
0.10819E+08
</weights>
</event>
<event>
      7  10001  1.11453E+07  3.65984E+00 -1.00000E+00  2.69447E-01
      21    -1     0     0   502   501  0.000000000E+00  0.000000000E+00  5.344007051E-01  5.344007051E-01  0.000000000E+00  0.00000E+00  9.000E+00
      21    -1     0     0   501   512  0.000000000E+00  0.000000000E+00 -9.047859232E+01  9.047859232E+01  0.000000000E+00  0.00000E+00  9.000E+00
      23     2     1     2     0     0 -5.926455764E+00  1.967617409E-01 -3.148376948E+01  3.207921377E+01  1.639091920E+00  0.00000E+00  9.000E+00
      11     1     3     3     0     0 -3.328155413E+00 -4.546548308E-01 -2.050913625E+01  2.078239638E+01  5.110000000E-04  0.00000E+00  9.000E+00
     -11     1     3     3     0     0 -2.598300351E+00  6.514165717E-01 -1.097463323E+01  1.129681738E+01  5.110000000E-04  0.00000E+00  9.000E+00
       2     1     1     2   502     0  2.922131823E+00 -2.286846569E+00 -3.383944161E+01  3.404227269E+01  0.000000000E+00  0.00000E+00  9.000E+00
      -2     1     1     2     0   512  3.004323941E+00  2.090084828E+00 -2.462098053E+01  2.489150657E+01  0.000000000E+00  0.00000E+00  9.000E+00
#rwgt            1          17   1975814.3045753622                3      840418           0
<weights>
0.11145E+08
0.10781E+08
0.11993E+08
0.10707E+08
0.11234E+08
0.10819E+08
0.11379E+08
0.11184E+08
0.11106E+08
0.11086E+08
0.11126E+08
0.11167E+08
0.11049E+08
0.11118E+08
0.11124E+08
0.11104E+08
0.11181E+08
0.11052E+08
0.11305E+08
0.11320E+08
0.11041E+08
0.11166E+08
0.11156E+08
0.11250E+08
0.11072E+08
0.11087E+08
0.11172E+08
0.11323E+08
0.10899E+08
0.11170E+08
0.11140E+08
0.11148E+08
0.11146E+08
0.11048E+08
0.11275E+08
0.11121E+08
0.11166E+08
0.11047E+08
0.11252E+08
0.11075E+08
0.11201E+08
0.11214E+08
0.11072E+08
0.11175E+08
0.11112E+08
</weights>
</event>
<event>
      7  10001 -1.11453E+07  1.25161E+00 -1.00000E+00  4.82796E-01
      -2    -1     0     0     0   502  0.000000000E+00  0.000000000E+00  4.473838194E+01  4.473838194E+01  0.000000000E+00  0.00000E+00  9.000E+00
      21    -1     0     0   502   511  0.000000000E+00  0.000000000E+00 -5.820419869E+00  5.820419869E+00  0.000000000E+00  0.00000E+00  9.000E+00
      23     2     1     2     0     0  5.820821957E-01 -7.425513430E-01  3.801601011E+01  3.808467422E+01  2.082110406E+00  0.00000E+00  9.000E+00
      11     1     3     3     0     0  8.626904464E-01 -1.304444226E-01  6.153252223E+00  6.214801987E+00  5.110000000E-04  0.00000E+00  9.000E+00
     -11     1     3     3     0     0 -2.806082507E-01 -6.121069205E-01  3.186275789E+01  3.186987224E+01  5.110000000E-04  0.00000E+00  9.000E+00
      -2     1     1     2     0   501 -1.885459932E-02 -3.751724439E-01  6.614963417E+00  6.625620791E+00  0.000000000E+00  0.00000E+00  9.000E+00
      21     1     1     2   501   511 -5.632275964E-01  1.117723787E+00 -5.713011459E+00  5.848506794E+00  8.429369702E-08  0.00000E+00  9.000E+00
#rwgt            1           7  -141896.80331453533                3      846214           0
<weights>
-.11145E+08
-.97461E+07
-.12124E+08
-.15275E+08
-.76971E+07
-.69561E+07
-.17309E+08
-.11225E+08
-.11059E+08
-.10908E+08
-.10945E+08
-.10993E+08
-.11081E+08
-.10943E+08
-.10949E+08
-.11216E+08
-.11138E+08
-.11340E+08
-.11336E+08
-.11337E+08
-.11324E+08
-.11346E+08
-.11386E+08
-.11194E+08
-.11331E+08
-.11261E+08
-.10988E+08
-.11301E+08
-.11253E+08
-.11308E+08
-.11359E+08
-.11141E+08
-.11213E+08
-.11149E+08
-.11151E+08
-.11253E+08
-.11049E+08
-.10965E+08
-.11256E+08
-.11125E+08
-.11164E+08
-.11162E+08
-.11129E+08
-.11375E+08
-.10928E+08
</weights>
</event>
<event>
      6  10001 -1.11453E+07  8.94427E-01 -1.00000E+00  4.76469E-01
      21    -1     0     0   502   501  0.000000000E+00  0.000000000E+00  1.057837255E-02  1.057837255E-02  0.000000000E+00  0.00000E+00  9.000E+00
      -2    -1     0     0     0   502  0.000000000E+00  0.000000000E+00 -1.309798999E+02  1.309798999E+02  0.000000000E+00  0.00000E+00  9.000E+00
      23     2     1     2     0     0 -9.170621594E-02  4.081160445E-01 -1.231589989E+02  1.231689625E+02  1.509753472E+00  0.00000E+00  9.000E+00
      11     1     3     3     0     0 -1.697768202E-01 -2.539439888E-02 -1.132984177E+02  1.132985477E+02  5.110000000E-04  0.00000E+00  9.000E+00
     -11     1     3     3     0     0  7.807060424E-02  4.335104434E-01 -9.860581195E+00  9.870414788E+00  5.110000000E-04  0.00000E+00  9.000E+00
      -2     1     1     2     0   501  9.170621594E-02 -4.081160445E-01 -7.810322601E+00  7.821515702E+00  0.000000000E+00  0.00000E+00  9.000E+00
#rwgt            1          14  -3520733.6474530944                3      868750           0
<weights>
-.11145E+08
-.12620E+08
-.94093E+07
-.15338E+08
-.75392E+07
-.91702E+07
-.13910E+08
-.11130E+08
-.11157E+08
-.11229E+08
-.11242E+08
-.11113E+08
-.11198E+08
-.11256E+08
-.11251E+08
-.11046E+08
-.11189E+08
-.11096E+08
-.10940E+08
-.10915E+08
-.11117E+08
-.11025E+08
-.11006E+08
-.11133E+08
-.11016E+08
-.11069E+08
-.11147E+08
-.11041E+08
-.10975E+08
-.11029E+08
-.11033E+08
-.11169E+08
-.11082E+08
-.11296E+08
-.10995E+08
-.11088E+08
-.11179E+08
-.11158E+08
-.11154E+08
-.11101E+08
-.11170E+08
-.11285E+08
-.10995E+08
-.11028E+08
-.11246E+08
</weights>
</event>
<event>
      6  10001 -1.11453E+07  8.94427E-01 -1.00000E+00  4.40756E-01
      21    -1     0     0   502   501  0.000000000E+00  0.000000000E+00  1.962857179E-02  1.962857179E-02  0.000000000E+00  0.00000E+00  9.000E+00
       3    -1     0     0   501     0  0.000000000E+00  0.000000000E+00 -9.205715733E+01  9.205715733E+01  0.000000000E+00  0.00000E+00  9.000E+00
      23     2     1     2     0     0  5.279076572E-02 -4.905004767E-01 -4.612244049E+01  4.615904741E+01  1.770526306E+00  0.00000E+00  9.000E+00
      11     1     3     3     0     0 -2.518820277E-02 -3.332496016E-01 -4.570479665E+01  4.570601850E+01  5.110000000E-04  0.00000E+00  9.000E+00
     -11     1     3     3     0     0  7.797896849E-02 -1.572508750E-01 -4.176438365E-01  4.530289091E-01  5.110000000E-04  0.00000E+00  9.000E+00
       3     1     1     2   502     0 -5.279076572E-02  4.905004767E-01 -4.591508827E+01  4.591773850E+01  0.000000000E+00  0.00000E+00  9.000E+00
#rwgt            1          18  -287580.24176401092                3      869735           0
<weights>
-.11145E+08
-.12535E+08
-.95912E+07
-.15234E+08
-.76850E+07
-.91702E+07
-.13910E+08
-.11124E+08
-.11164E+08
-.11106E+08
-.11247E+08
-.11392E+08
-.10856E+08
-.11208E+08
-.11182E+08
-.12447E+08
-.94116E+07
-.11557E+08
-.10417E+08
-.10427E+08
-.11494E+08
-.11050E+08
-.11092E+08
-.10187E+08
-.11937E+08
-.10625E+08
-.10648E+08
-.10163E+08
-.12178E+08
-.10973E+08
-.11144E+08
-.11226E+08
-.11042E+08
-.11219E+08
-.11078E+08
-.11197E+08
-.11094E+08
-.11026E+08
-.11302E+08
-.11090E+08
-.11184E+08
-.11245E+08
-.11038E+08
-.11095E+08
-.11180E+08
</weights>
</event>
<event>
      6  10001 -1.11453E+07  8.94427E-01 -1.00000E+00  4.88393E-01
      21    -1     0     0   502   501  0.000000000E+00  0.000000000E+00  5.326096271E-03  5.326096271E-03  0.000000000E+00  0.00000E+00  9.000E+00
      -2    -1     0     0     0   502  0.000000000E+00  0.000000000E+00 -1.669590071E+02  1.669590071E+02  0.000000000E+00  0.00000E+00  9.000E+00
      23     2     1     2     0     0  5.709692554E-01  1.160667411E-01 -7.629389342E+01  7.630267338E+01  1.000156558E+00  0.00000E+00  9.000E+00
      11     1     3     3     0     0  4.523830212E-01  1.652332907E-01 -7.515887936E+01  7.516042243E+01  5.110000000E-04  0.00000E+00  9.000E+00
     -11     1     3     3     0     0  1.185862342E-01 -4.916654963E-02 -1.135014063E+00  1.142250948E+00  5.110000000E-04  0.00000E+00  9.000E+00
      -2     1     1     2     0   501 -5.709692554E-01 -1.160667411E-01 -9.065978761E+01  9.066165985E+01  0.000000000E+00  0.00000E+00  9.000E+00
#rwgt            1          14  -365543.64323141612                3      870318           0
<weights>
-.11145E+08
-.11839E+08
-.10378E+08
-.14389E+08
-.83158E+07
-.91702E+07
-.13910E+08
-.11102E+08
-.11184E+08
-.11269E+08
-.11265E+08
-.11123E+08
-.11216E+08
-.11281E+08
-.11276E+08
-.11040E+08
-.11190E+08
-.11077E+08
-.10918E+08
-.10894E+08
-.11098E+08
-.11001E+08
-.10986E+08
-.11126E+08
-.10995E+08
-.11041E+08
-.11160E+08
-.11019E+08
-.10969E+08
-.11015E+08
-.11013E+08
-.11195E+08
-.11048E+08
-.11301E+08
-.10991E+08
-.11112E+08
-.11155E+08
-.11225E+08
-.11076E+08
-.11108E+08
-.11164E+08
-.11294E+08
-.10986E+08
-.10998E+08
-.11277E+08
</weights>
</event>
<event>
      6  10001 -1.11453E+07  8.94427E-01 -1.00000E+00  2.71654E-01
      21    -1     0     0   502   501  0.000000000E+00  0.000000000E+00  6.894577286E-03  6.894577286E-03  0.000000000E+00  0.00000E+00  9.000E+00
       2    -1     0     0   501     0  0.000000000E+00  0.000000000E+00 -5.764646273E+02  5.764646273E+02  0.000000000E+00  0.00000E+00  9.000E+00
      23     2     1     2     0     0  1.259336423E+00 -1.246543017E+00 -3.917305770E+02  3.917358679E+02  1.002709543E+00  0.00000E+00  9.000E+00
      11     1     3     3     0     0  2.846963879E-02 -2.473488300E-01 -1.441465028E+02  1.441467178E+02  5.110000000E-04  0.00000E+00  9.000E+00
     -11     1     3     3     0     0  1.230866784E+00 -9.991941873E-01 -2.475840742E+02  2.475891501E+02  5.110000000E-04  0.00000E+00  9.000E+00
       2     1     1     2   502     0 -1.259336423E+00  1.246543017E+00 -1.847271557E+02  1.847356540E+02  0.000000000E+00  0.00000E+00  9.000E+00
#rwgt            1          17  -29567396.932661459                3      870880           0
<weights>
-.11145E+08
-.12034E+08
-.10035E+08
-.14626E+08
-.80404E+07
-.91702E+07
-.13910E+08
-.11131E+08
-.11159E+08
-.11163E+08
-.11148E+08
-.10965E+08
-.11348E+08
-.11155E+08
-.11150E+08
-.11240E+08
-.10998E+08
-.11509E+08
-.10638E+08
-.10564E+08
-.11554E+08
-.11110E+08
-.11173E+08
-.11014E+08
-.11240E+08
-.11396E+08
-.10990E+08
-.10694E+08
-.11651E+08
-.11061E+08
-.11197E+08
-.11034E+08
-.11254E+08
-.11576E+08
-.10622E+08
-.11086E+08
-.11199E+08
-.11140E+08
-.11158E+08
-.11272E+08
-.11032E+08
-.11129E+08
-.11162E+08
-.11134E+08
-.11156E+08
</weights>
</event>
<event>
      7  10001  1.11453E+07  9.67614E-01 -1.00000E+00  5.75476E-01
       2    -1     0     0   501     0  0.000000000E+00  0.000000000E+00  2.871137139E+01  2.871137139E+01  0.000000000E+00  0.00000E+00  9.000E+00
      21    -1     0     0   502   501  0.000000000E+00  0.000000000E+00 -4.068443674E-02  4.068443674E-02  0.000000000E+00  0.00000E+00  9.000E+00
      23     2     1     2     0     0 -3.471229876E-01  1.418204620E-01  1.757866438E+01  1.761436732E+01  1.056355600E+00  0.00000E+00  9.000E+00
      11     1     3     3     0     0  1.930001283E-01 -3.419338616E-01  6.825647219E+00  6.836931186E+00  5.110000000E-04  0.00000E+00  9.000E+00
     -11     1     3     3     0     0 -5.401231159E-01  4.837543236E-01  1.075301716E+01  1.077743613E+01  5.110000000E-04  0.00000E+00  9.000E+00
       2     1     1     2   511     0  3.549117108E-01 -7.301967078E-02  1.105154750E+01  1.105748599E+01  0.000000000E+00  0.00000E+00  9.000E+00
      21     1     1     2   502   511 -7.788723200E-03 -6.880079120E-02  4.047507016E-02  8.020252105E-02  2.924412204E-08  0.00000E+00  9.000E+00
#rwgt            2         248   40058776.174187742                3      871673           0
<weights>
0.11145E+08
0.11716E+08
0.10287E+08
0.14239E+08
0.82427E+07
0.91702E+07
0.13910E+08
0.11169E+08
0.11123E+08
0.10816E+08
0.10802E+08
0.10959E+08
0.11000E+08
0.10832E+08
0.10813E+08
0.11227E+08
0.11217E+08
0.11473E+08
0.11517E+08
0.11504E+08
0.11449E+08
0.11515E+08
0.11532E+08
0.11427E+08
0.11330E+08
0.11290E+08
0.11370E+08
0.11446E+08
0.11382E+08
0.11494E+08
0.11527E+08
0.11187E+08
0.11217E+08
0.11137E+08
0.11180E+08
0.11206E+08
0.11105E+08
0.11146E+08
0.11070E+08
0.11170E+08
0.11124E+08
0.11187E+08
0.11102E+08
0.11517E+08
0.10804E+08
</weights>
</event>
<event>
      7  10001  1.11453E+07  8.17242E+00 -1.00000E+00  2.05787E-01
       2    -1     0     0   501     0  0.000000000E+00  0.000000000E+00  2.041318740E+01  2.041318740E+01  0.000000000E+00  0.00000E+00  9.000E+00
      21    -1     0     0   502   501  0.000000000E+00  0.000000000E+00 -1.448091142E+00  1.448091142E+00  0.000000000E+00  0.00000E+00  9.000E+00
      23     2     1     2     0     0 -2.373241525E+00 -9.402071487E-01  1.666917941E+01  1.690408210E+01  1.170548801E+00  0.00000E+00  9.000E+00
      11     1     3     3     0     0 -2.438072748E+00 -9.586596530E-01  1.660702779E+01  1.681239421E+01  5.110000000E-04  0.00000E+00  9.000E+00
     -11     1     3     3     0     0  6.483122326E-02  1.845250430E-02  6.215162629E-02  9.168788467E-02  5.110000000E-04  0.00000E+00  9.000E+00
       2     1     1     2   512     0  2.475650973E-01  7.805834052E-01  2.670178900E+00  2.792929338E+00  0.000000000E+00  0.00000E+00  9.000E+00
      21     1     1     2   502   512  2.125676427E+00  1.596237435E-01 -3.742620556E-01  2.164267105E+00  5.844076984E-07  0.00000E+00  9.000E+00
#rwgt            2         248   1020609.1811838585                3      874337           0
<weights>
0.11145E+08
0.10853E+08
0.11249E+08
0.13190E+08
0.90136E+07
0.91702E+07
0.13910E+08
0.11199E+08
0.11088E+08
0.10856E+08
0.10863E+08
0.10972E+08
0.11038E+08
0.10880E+08
0.10872E+08
0.11224E+08
0.11182E+08
0.11420E+08
0.11431E+08
0.11426E+08
0.11398E+08
0.11443E+08
0.11468E+08
0.11310E+08
0.11339E+08
0.11289E+08
0.11152E+08
0.11388E+08
0.11322E+08
0.11415E+08
0.11455E+08
0.11169E+08
0.11214E+08
0.11139E+08
0.11170E+08
0.11233E+08
0.11073E+08
0.11072E+08
0.11145E+08
0.11151E+08
0.11141E+08
0.11174E+08
0.11115E+08
0.11456E+08
0.10857E+08
</weights>
</event>
<event>
      7  10001  1.11453E+07  1.69698E+00 -1.00000E+00  3.87458E-01
       2    -1     0     0   501     0  0.000000000E+00  0.000000000E+00  9.859339347E-02  9.859339347E-02  0.000000000E+00  0.00000E+00  9.000E+00
      21    -1     0     0   502   501  0.000000000E+00  0.000000000E+00 -1.348674621E+02  1.348674621E+02  0.000000000E+00  0.00000E+00  9.000E+00
      23     2     1     2     0     0 -1.758800192E-01  1.516791025E+00 -4.811167272E+01  4.827057116E+01  3.603248371E+00  0.00000E+00  9.000E+00
      11     1     3     3     0     0 -2.569899411E-01 -2.282685729E-02 -1.811221863E-01  3.152307135E-01  5.110000000E-04  0.00000E+00  9.000E+00
     -11     1     3     3     0     0  8.110992184E-02  1.539617882E+00 -4.793055054E+01  4.795534044E+01  5.110000000E-04  0.00000E+00  9.000E+00
       2     1     1     2   511     0  2.548343625E-01 -1.756770914E+00 -4.191297845E+01  4.195055359E+01  0.000000000E+00  0.00000E+00  9.000E+00
      21     1     1     2   502   511 -7.895434327E-02  2.399798896E-01 -4.474421754E+01  4.474493074E+01  0.000000000E+00  0.00000E+00  9.000E+00
#rwgt            1          24   464899.54525798681                3      878597           0
<weights>
0.11145E+08
0.11330E+08
0.10895E+08
0.12099E+08
0.10033E+08
0.10394E+08
0.12031E+08
0.11189E+08
0.11100E+08
0.11114E+08
0.11188E+08
0.11029E+08
0.11280E+08
0.11218E+08
0.11206E+08
0.11168E+08
0.11012E+08
0.11082E+08
0.10984E+08
0.10976E+08
0.11095E+08
0.11064E+08
0.10992E+08
0.11091E+08
0.11081E+08
0.11098E+08
0.11136E+08
0.11063E+08
0.11038E+08
0.11016E+08
0.11052E+08
0.11079E+08
0.11186E+08
0.11156E+08
0.11125E+08
0.11254E+08
0.11041E+08
0.10819E+08
0.11556E+08
0.11011E+08
0.11269E+08
0.11098E+08
0.11195E+08
0.11098E+08
0.11163E+08
</weights>
</event>
<event>
      6  10001 -1.11453E+07  8.94427E-01 -1.00000E+00  5.70887E-01
      21    -1     0     0   502   501  0.000000000E+00  0.000000000E+00  1.458030585E-03  1.458030585E-03  0.000000000E+00  0.00000E+00  9.000E+00
       1    -1     0     0   501     0  0.000000000E+00  0.000000000E+00 -5.242881283E+02  5.242881283E+02  0.000000000E+00  0.00000E+00  9.000E+00
      23     2     1     2     0     0  8.374522939E-03  4.536647133E-01 -4.601676002E+02  4.601689108E+02  1.000163232E+00  0.00000E+00  9.000E+00
      11     1     3     3     0     0 -2.053748567E-02 -3.134052542E-01 -1.002278469E+02  1.002283390E+02  5.110000000E-04  0.00000E+00  9.000E+00
     -11     1     3     3     0     0  2.891200861E-02  7.670699676E-01 -3.599397532E+02  3.599405718E+02  5.110000000E-04  0.00000E+00  9.000E+00
       1     1     1     2   502     0 -8.374522939E-03 -4.536647133E-01 -6.411907004E+01  6.412067549E+01  0.000000000E+00  0.00000E+00  9.000E+00
#rwgt            1          16  -2322194.1165929153                3      977199           0
<weights>
-.11145E+08
-.15265E+08
-.58642E+07
-.18552E+08
-.46987E+07
-.91702E+07
-.13910E+08
-.11328E+08
-.10975E+08
-.11054E+08
-.11364E+08
-.12172E+08
-.10116E+08
-.11167E+08
-.11180E+08
-.10289E+08
-.12104E+08
-.98872E+07
-.12788E+08
-.13096E+08
-.97028E+07
-.11223E+08
-.10982E+08
-.11703E+08
-.10513E+08
-.10199E+08
-.11729E+08
-.12668E+08
-.94313E+07
-.11375E+08
-.10933E+08
-.10936E+08
-.11353E+08
-.98748E+07
-.12627E+08
-.11155E+08
-.11136E+08
-.11133E+08
-.11180E+08
-.11381E+08
-.10932E+08
-.11146E+08
-.11143E+08
-.11109E+08
-.11182E+08
</weights>
</event>
<event>
      7  10001 -1.11453E+07  1.26597E+00 -1.00000E+00  4.79092E-01
      -2    -1     0     0     0   502  0.000000000E+00  0.000000000E+00  1.181243933E+02  1.181243933E+02  0.000000000E+00  0.00000E+00  9.000E+00
      21    -1     0     0   511   501  0.000000000E+00  0.000000000E+00 -5.650249200E+00  5.650249200E+00  0.000000000E+00  0.00000E+00  9.000E+00
      23     2     1     2     0     0 -1.415237220E-01  9.030603347E-01  9.801631677E+01  9.808691248E+01  3.606729857E+00  0.00000E+00  9.000E+00
      11     1     3     3     0     0  3.720760299E-01 -3.603487270E-01  8.457452669E+01  8.457611280E+01  5.110000000E-04  0.00000E+00  9.000E+00
     -11     1     3     3     0     0 -5.135997519E-01  1.263409062E+00  1.344179008E+01  1.351079968E+01  5.110000000E-04  0.00000E+00  9.000E+00
      -2     1     1     2     0   501 -4.983434360E-01  1.893017619E-01  1.999782357E+01  2.000492761E+01  0.000000000E+00  0.00000E+00  9.000E+00
      21     1     1     2   511   502  6.398671580E-01 -1.092362097E+00 -5.539996235E+00  5.682802408E+00  2.795705652E-07  0.00000E+00  9.000E+00
#rwgt            1           7  -661391.27024800901                3      978339           0
<weights>
-.11145E+08
-.11268E+08
-.10685E+08
-.16649E+08
-.66803E+07
-.71921E+07
-.16946E+08
-.11150E+08
-.11141E+08
-.11311E+08
-.11312E+08
-.11365E+08
-.11123E+08
-.11252E+08
-.11276E+08
-.10951E+08
-.11342E+08
-.10998E+08
-.11098E+08
-.11134E+08
-.10999E+08
-.11010E+08
-.11030E+08
-.11036E+08
-.11060E+08
-.11125E+08
-.10973E+08
-.11145E+08
-.11047E+08
-.11044E+08
-.10997E+08
-.11151E+08
-.11099E+08
-.11228E+08
-.11056E+08
-.11048E+08
-.11232E+08
-.11272E+08
-.11059E+08
-.11268E+08
-.11039E+08
-.11086E+08
-.11208E+08
-.10991E+08
-.11302E+08
</weights>
</event>
<event>
      7  10001  1.11453E+07  1.28683E+00 -1.00000E+00  4.73841E-01
       3    -1     0     0   501     0  0.000000000E+00  0.000000000E+00  7.542888948E+01  7.542888948E+01  0.000000000E+00  0.00000E+00  9.000E+00
      -3    -1     0     0     0   501  0.000000000E+00  0.000000000E+00 -1.033409895E-01  1.033409895E-01  0.000000000E+00  0.00000E+00  9.000E+00
      23     2     1     2     0     0  2.855018034E-01  1.242980728E-01  6.196473746E+01  6.197491372E+01  1.079018231E+00  0.00000E+00  9.000E+00
      11     1     3     3     0     0  3.090963159E-01  5.847001974E-01  3.755970830E+01  3.756553078E+01  5.110000000E-04  0.00000E+00  9.000E+00
     -11     1     3     3     0     0 -2.359451253E-02 -4.604021246E-01  2.440502916E+01  2.440938294E+01  5.110000000E-04  0.00000E+00  9.000E+00
       3     1     1     2   502     0  8.484863075E-01  4.839761350E-01  6.982210069E+00  7.050207044E+00  0.000000000E+00  0.00000E+00  9.000E+00
      -3     1     1     2     0   502 -1.133988111E+00 -6.082742078E-01  6.378600963E+00  6.507109711E+00  0.000000000E+00  0.00000E+00  9.000E+00
#rwgt            1          26   208097.77074936451                3     1015374           0
<weights>
0.11145E+08
0.14660E+08
0.75933E+07
0.12674E+08
0.91501E+07
0.12513E+08
0.87784E+07
0.11099E+08
0.11204E+08
0.10712E+08
0.10641E+08
0.10922E+08
0.10906E+08
0.10707E+08
0.10660E+08
0.11238E+08
0.11307E+08
0.11620E+08
0.11729E+08
0.11698E+08
0.11587E+08
0.11705E+08
0.11697E+08
0.11706E+08
0.11322E+08
0.11316E+08
0.11865E+08
0.11608E+08
0.11529E+08
0.11702E+08
0.11716E+08
0.11238E+08
0.11224E+08
0.11125E+08
0.11211E+08
0.11147E+08
0.11174E+08
0.11349E+08
0.10866E+08
0.11220E+08
0.11080E+08
0.11217E+08
0.11070E+08
0.11677E+08
0.10664E+08
</weights>
</event>
<event>
      6  10001  1.11453E+07  8.94427E-01 -1.00000E+00  6.06860E-01
       4    -1     0     0   501     0  0.000000000E+00  0.000000000E+00  4.109902427E-02  4.109902427E-02  0.000000000E+00  0.00000E+00  9.000E+00
      21    -1     0     0   502   501  0.000000000E+00  0.000000000E+00 -9.969352797E+01  9.969352797E+01  0.000000000E+00  0.00000E+00  9.000E+00
      23     2     1     2     0     0 -4.997459968E-01 -2.566754474E-02 -9.603196197E+01  9.607974177E+01  2.988085307E+00  0.00000E+00  9.000E+00
      11     1     3     3     0     0 -2.752347204E-01 -4.979811329E-01 -9.308495047E+01  9.308668940E+01  5.110000000E-04  0.00000E+00  9.000E+00
     -11     1     3     3     0     0 -2.245112764E-01  4.723135882E-01 -2.947011500E+00  2.993052368E+00  5.110000000E-04  0.00000E+00  9.000E+00
       4     1     1     2   502     0  4.997459968E-01  2.566754474E-02 -3.620466979E+00  3.654885228E+00  0.000000000E+00  0.00000E+00  9.000E+00
#rwgt            1          28   106428.66910068787                3     1019355           0
<weights>
0.11145E+08
0.12648E+08
0.94444E+07
0.12267E+08
0.97233E+07
0.11332E+08
0.10591E+08
0.11302E+08
0.10991E+08
0.10815E+08
0.11004E+08
0.10897E+08
0.11162E+08
0.10984E+08
0.11001E+08
0.11222E+08
0.11023E+08
0.11268E+08
0.11210E+08
0.11198E+08
0.11266E+08
0.11257E+08
0.11253E+08
0.11114E+08
0.11341E+08
0.11261E+08
0.11064E+08
0.11210E+08
0.11127E+08
0.11146E+08
0.11261E+08
0.11030E+08
0.11301E+08
0.11198E+08
0.11086E+08
0.11393E+08
0.10922E+08
0.10485E+08
0.11898E+08
0.11012E+08
0.11267E+08
0.11126E+08
0.11167E+08
0.11345E+08
0.10925E+08
</weights>
</event>
<event>
      7  10001  1.11453E+07  2.44462E+00 -1.00000E+00  3.20373E-01
      -5    -1     0     0     0   502  0.000000000E+00  0.000000000E+00  1.094889828E+00  1.094889828E+00  0.000000000E+00  0.00000E+00  9.000E+00
      21    -1     0     0   502   501  0.000000000E+00  0.000000000E+00 -3.573733699E+00  3.573733699E+00  0.000000000E+00  0.00000E+00  9.000E+00
      23     2     1     2     0     0  1.513878224E-01  1.837239570E-01  7.155146563E-01  1.306413764E+00  1.066809700E+00  0.00000E+00  9.000E+00
      11     1     3     3     0     0 -2.159521522E-01  1.377361407E-01 -1.960407178E-01  3.225504621E-01  5.110000000E-04  0.00000E+00  9.000E+00
     -11     1     3     3     0     0  3.673399746E-01  4.598781634E-02  9.115553741E-01  9.838633022E-01  5.110000000E-04  0.00000E+00  9.000E+00
      -5     1     1     2     0   511  9.542177784E-02 -2.761731663E-01 -1.949820012E-01  3.512761225E-01  0.000000000E+00  0.00000E+00  9.000E+00
      21     1     1     2   511   501 -2.468096002E-01  9.244920926E-02 -2.999376526E+00  3.010933640E+00  1.576990671E-07  0.00000E+00  9.000E+00
#rwgt            2          11   85797.021150070505                3     1076234           0
<weights>
0.11145E+08
0.12272E+08
0.95206E+07
0.14915E+08
0.76284E+07
0.91702E+07
0.13910E+08
0.11204E+08
0.11083E+08
0.10873E+08
0.10888E+08
0.10977E+08
0.11053E+08
0.10900E+08
0.10895E+08
0.11220E+08
0.11172E+08
0.11397E+08
0.11402E+08
0.11399E+08
0.11377E+08
0.11414E+08
0.11442E+08
0.11277E+08
0.11338E+08
0.11289E+08
0.11114E+08
0.11365E+08
0.11298E+08
0.11384E+08
0.11426E+08
0.11161E+08
0.11212E+08
0.11140E+08
0.11166E+08
0.11241E+08
0.11064E+08
0.11044E+08
0.11174E+08
0.11143E+08
0.11148E+08
0.11169E+08
0.11121E+08
0.11431E+08
0.10879E+08
</weights>
</event>
<event>
      7  10001  1.11453E+07  8.94427E-01 -1.00000E+00  6.07649E-01
      21    -1     0     0   501   512  0.000000000E+00  0.000000000E+00  4.745268101E+00  4.745268101E+00  0.000000000E+00  0.00000E+00  9.000E+00
      -4    -1     0     0     0   502  0.000000000E+00  0.000000000E+00 -1.367644675E+01  1.367644675E+01  0.000000000E+00  0.00000E+00  9.000E+00
      23     2     1     2     0     0  2.285551511E+00  4.672516287E-01 -1.198609797E+01  1.228059706E+01  1.305545786E+00  0.00000E+00  9.000E+00
      11     1     3     3     0     0 -1.121309689E-01 -1.051372256E-01 -2.971693156E-01  3.345699533E-01  5.110000000E-04  0.00000E+00  9.000E+00
     -11     1     3     3     0     0  2.397682480E+00  5.723888543E-01 -1.168892865E+01  1.194602710E+01  5.110000000E-04  0.00000E+00  9.000E+00
      21     1     1     2   501   502 -2.892010199E+00 -3.388621679E-01  4.038337253E+00  4.978626148E+00  2.598106231E-07  0.00000E+00  9.000E+00
      -4     1     1     2     0   512  6.064586880E-01 -1.283894607E-01 -9.834179387E-01  1.162491650E+00  0.000000000E+00  0.00000E+00  9.000E+00
#rwgt            2         155   207905.24093336423                3     1078442           0
<weights>
0.11145E+08
0.10911E+08
0.11153E+08
0.13261E+08
0.89360E+07
0.91702E+07
0.13910E+08
0.11235E+08
0.11053E+08
0.10829E+08
0.10875E+08
0.10943E+08
0.11065E+08
0.10868E+08
0.10879E+08
0.11210E+08
0.11191E+08
0.11406E+08
0.11434E+08
0.11430E+08
0.11387E+08
0.11420E+08
0.11479E+08
0.11242E+08
0.11408E+08
0.11374E+08
0.11037E+08
0.11392E+08
0.11265E+08
0.11373E+08
0.11435E+08
0.11137E+08
0.11240E+08
0.11150E+08
0.11154E+08
0.11299E+08
0.11009E+08
0.10918E+08
0.11280E+08
0.11131E+08
0.11160E+08
0.11153E+08
0.11137E+08
0.11456E+08
0.10853E+08
</weights>
</event>
<event>
      6  10001 -1.11453E+07  8.94427E-01 -1.00000E+00  3.73957E-01
       2    -1     0     0   501     0  0.000000000E+00  0.000000000E+00  7.191628500E+01  7.191628500E+01  0.000000000E+00  0.00000E+00  9.000E+00
      -2    -1     0     0     0   502  0.000000000E+00  0.000000000E+00 -2.375639174E-02  2.375639174E-02  0.000000000E+00  0.00000E+00  9.000E+00
      23     2     1     2     0     0  8.635367988E-01  1.091645479E-01  2.829178167E+01  2.833060725E+01  1.200326754E+00  0.00000E+00  9.000E+00
      11     1     3     3     0     0  8.871463803E-02 -1.489472827E-01  1.954797449E+01  1.954874324E+01  5.110000000E-04  0.00000E+00  9.000E+00
     -11     1     3     3     0     0  7.748221607E-01  2.581118307E-01  8.743807184E+00  8.781864007E+00  5.110000000E-04  0.00000E+00  9.000E+00
      21     1     1     2   501   502 -8.635367988E-01 -1.091645479E-01  4.360074693E+01  4.360943414E+01  4.768371582E-07  0.00000E+00  9.000E+00
#rwgt            1          23  -2019284.4612372064                3     1079472           0
<weights>
-.11145E+08
-.12970E+08
-.91977E+07
-.15783E+08
-.73703E+07
-.91589E+07
-.13909E+08
-.11100E+08
-.11220E+08
-.10812E+08
-.10789E+08
-.10962E+08
-.10986E+08
-.10825E+08
-.10802E+08
-.11217E+08
-.11239E+08
-.11486E+08
-.11527E+08
-.11511E+08
-.11462E+08
-.11530E+08
-.11540E+08
-.11459E+08
-.11314E+08
-.11300E+08
-.11385E+08
-.11465E+08
-.11382E+08
-.11512E+08
-.11538E+08
-.11184E+08
-.11226E+08
-.11136E+08
-.11183E+08
-.11159E+08
-.11158E+08
-.11165E+08
-.11053E+08
-.11173E+08
-.11122E+08
-.11195E+08
-.11093E+08
-.11527E+08
-.10796E+08
</weights>
</event>
<event>
      6  10001 -1.11453E+07  8.94427E-01 -1.00000E+00  3.08958E-01
      -1    -1     0     0     0   502  0.000000000E+00  0.000000000E+00  1.134781817E-02  1.134781817E-02  0.000000000E+00  0.00000E+00  9.000E+00
       1    -1     0     0   501     0  0.000000000E+00  0.000000000E+00 -2.068828385E+02  2.068828385E+02  0.000000000E+00  0.00000E+00  9.000E+00
      23     2     1     2     0     0  4.447997127E-02  1.351525948E+00 -1.117503115E+02  1.117633957E+02  1.046847628E+00  0.00000E+00  9.000E+00
      11     1     3     3     0     0 -4.536230509E-01  7.846545906E-01 -7.393906229E+01  7.394461704E+01  5.110000000E-04  0.00000E+00  9.000E+00
     -11     1     3     3     0     0  4.981030222E-01  5.668713574E-01 -3.781124921E+01  3.781877862E+01  5.110000000E-04  0.00000E+00  9.000E+00
      21     1     1     2   501   502 -4.447997127E-02 -1.351525948E+00 -9.512117921E+01  9.513079068E+01  1.348699152E-06  0.00000E+00  9.000E+00
#rwgt            1          10  -10195.022394262704                3     1079691           0
<weights>
-.11145E+08
-.14692E+08
-.72618E+07
-.17857E+08
-.58185E+07
-.91702E+07
-.13910E+08
-.11209E+08
-.11082E+08
-.11194E+08
-.11207E+08
-.11232E+08
-.11030E+08
-.11201E+08
-.11206E+08
-.10366E+08
-.12070E+08
-.10648E+08
-.11565E+08
-.11619E+08
-.10591E+08
-.11134E+08
-.11014E+08
-.11330E+08
-.10859E+08
-.10898E+08
-.11257E+08
-.11345E+08
-.10663E+08
-.11153E+08
-.11043E+08
-.11109E+08
-.11159E+08
-.10665E+08
-.11617E+08
-.11119E+08
-.11157E+08
-.11166E+08
-.11131E+08
-.11225E+08
-.11063E+08
-.11224E+08
-.11060E+08
-.11080E+08
-.11205E+08
</weights>
</event>
<event>
      6  10001 -1.11453E+07  8.94427E-01 -1.00000E+00  6.07159E-01
      -1    -1     0     0     0   502  0.000000000E+00  0.000000000E+00  1.011462315E+00  1.011462315E+00  0.000000000E+00  0.00000E+00  9.000E+00
       1    -1     0     0   501     0  0.000000000E+00  0.000000000E+00 -6.733603911E-01  6.733603911E-01  0.000000000E+00  0.00000E+00  9.000E+00
      23     2     1     2     0     0 -3.172669702E-01  3.419042554E-01  4.828454681E-02  1.135686146E+00  1.034357179E+00  0.00000E+00  9.000E+00
      11     1     3     3     0     0 -2.500545833E-01 -2.025801358E-02  4.960505064E-01  5.558813253E-01  5.110000000E-04  0.00000E+00  9.000E+00
     -11     1     3     3     0     0 -6.721238684E-02  3.621622690E-01 -4.477659596E-01  5.798048203E-01  5.110000000E-04  0.00000E+00  9.000E+00
      21     1     1     2   501   502  3.172669702E-01 -3.419042554E-01  2.898173774E-01  5.491365608E-01  1.393875996E-08  0.00000E+00  9.000E+00
#rwgt            1          10  -67894.003851030036                3     1082377           0
<weights>
-.11145E+08
-.11414E+08
-.99232E+07
-.22963E+08
-.29609E+07
-.35110E+07
-.22597E+08
-.11669E+08
-.10554E+08
-.10911E+08
-.11017E+08
-.10995E+08
-.11138E+08
-.10970E+08
-.11009E+08
-.11181E+08
-.11109E+08
-.11143E+08
-.11462E+08
-.11496E+08
-.11103E+08
-.11278E+08
-.11339E+08
-.11099E+08
-.11379E+08
-.11087E+08
-.11212E+08
-.11259E+08
-.11207E+08
-.11222E+08
-.11300E+08
-.11172E+08
-.11159E+08
-.11006E+08
-.11280E+08
-.11651E+08
-.10614E+08
-.10844E+08
-.11369E+08
-.11129E+08
-.11166E+08
-.11084E+08
-.11211E+08
-.11330E+08
-.10965E+08
</weights>
</event>
<event>
      7  10001  1.11453E+07  4.26579E+00 -1.00000E+00  2.54109E-01
      21    -1     0     0   502   501  0.000000000E+00  0.000000000E+00  7.495971809E+01  7.495971809E+01  0.000000000E+00  0.00000E+00  9.000E+00
       4    -1     0     0   501     0  0.000000000E+00  0.000000000E+00 -9.981202795E-02  9.981202795E-02  0.000000000E+00  0.00000E+00  9.000E+00
      23     2     1     2     0     0 -1.360996322E-01  9.922945542E-02  1.321137569E+01  1.327662216E+01  1.303793985E+00  0.00000E+00  9.000E+00
      11     1     3     3     0     0 -4.232572689E-01  5.469006206E-01  4.940778446E+00  4.988941663E+00  5.110000000E-04  0.00000E+00  9.000E+00
     -11     1     3     3     0     0  2.871576368E-01 -4.476711652E-01  8.270597242E+00  8.287680495E+00  5.110000000E-04  0.00000E+00  9.000E+00
       4     1     1     2   511     0 -1.946251030E+00 -7.744303654E-02  2.537274362E+01  2.544739690E+01  0.000000000E+00  0.00000E+00  9.000E+00
      21     1     1     2   502   511  2.082350662E+00 -2.178641889E-02  3.627578675E+01  3.633551105E+01  4.768371582E-07  0.00000E+00  9.000E+00
#rwgt            1          19   1501672.1017068287                3     1083407           0
<weights>
0.11145E+08
0.12091E+08
0.10080E+08
0.12822E+08
0.93340E+07
0.10454E+08
0.11939E+08
0.11170E+08
0.11120E+08
0.10774E+08
0.10741E+08
0.10939E+08
0.10971E+08
0.10783E+08
0.10755E+08
0.11237E+08
0.11245E+08
0.11537E+08
0.11574E+08
0.11563E+08
0.11507E+08
0.11587E+08
0.11595E+08
0.11472E+08
0.11353E+08
0.11322E+08
0.11340E+08
0.11514E+08
0.11427E+08
0.11571E+08
0.11599E+08
0.11208E+08
0.11218E+08
0.11130E+08
0.11193E+08
0.11206E+08
0.11106E+08
0.11217E+08
0.10997E+08
0.11189E+08
0.11108E+08
0.11194E+08
0.11095E+08
0.11579E+08
0.10750E+08
</weights>
</event>
<event>
      6  10001 -1.11453E+07  8.94427E-01 -1.00000E+00  2.29944E-01
       2    -1     0     0   501     0  0.000000000E+00  0.000000000E+00  5.817757676E+02  5.817757676E+02  0.000000000E+00  0.00000E+00  9.000E+00
      -2    -1     0     0     0   502  0.000000000E+00  0.000000000E+00 -2.014513536E-02  2.014513536E-02  0.000000000E+00  0.00000E+00  9.000E+00
      23     2     1     2     0     0 -4.464868127E-02 -6.349215403E-01  8.295161561E+01  8.299149980E+01  2.492666510E+00  0.00000E+00  9.000E+00
      11     1     3     3     0     0 -8.022860996E-01 -4.267544954E-01  7.397018514E+01  7.397576679E+01  5.110000000E-04  0.00000E+00  9.000E+00
     -11     1     3     3     0     0  7.576374183E-01 -2.081670449E-01  8.981430479E+00  9.015733008E+00  5.110000000E-04  0.00000E+00  9.000E+00
      21     1     1     2   501   502  4.464868127E-02  6.349215403E-01  4.988040069E+02  4.988044130E+02  5.394796609E-06  0.00000E+00  9.000E+00
#rwgt            1          23  -4312359.0926565565                3     1094924           0
<weights>
-.11145E+08
-.12347E+08
-.96711E+07
-.15022E+08
-.77495E+07
-.91612E+07
-.13909E+08
-.11128E+08
-.11181E+08
-.10815E+08
-.10796E+08
-.10961E+08
-.10993E+08
-.10830E+08
-.10808E+08
-.11221E+08
-.11229E+08
-.11479E+08
-.11519E+08
-.11505E+08
-.11456E+08
-.11522E+08
-.11535E+08
-.11441E+08
-.11321E+08
-.11297E+08
-.11365E+08
-.11456E+08
-.11379E+08
-.11502E+08
-.11531E+08
-.11184E+08
-.11222E+08
-.11136E+08
-.11182E+08
-.11178E+08
-.11137E+08
-.11155E+08
-.11062E+08
-.11171E+08
-.11123E+08
-.11192E+08
-.11097E+08
-.11521E+08
-.10801E+08
</weights>
</event>
<event>
      6  10001 -1.11453E+07  8.94427E-01 -1.00000E+00  5.23051E-01
       2    -1     0     0   501     0  0.000000000E+00  0.000000000E+00  1.746561117E+02  1.746561117E+02  0.000000000E+00  0.00000E+00  9.000E+00
      21    -1     0     0   502   501  0.000000000E+00  0.000000000E+00 -5.195285493E-03  5.195285493E-03  0.000000000E+00  0.00000E+00  9.000E+00
      23     2     1     2     0     0  4.630830167E-01 -4.240921271E-01  1.143362403E+02  1.143433622E+02  1.111012624E+00  0.00000E+00  9.000E+00
      11     1     3     3     0     0 -1.290570277E-01  1.662699151E-01  6.269286070E+01  6.269321402E+01  5.110000000E-04  0.00000E+00  9.000E+00
     -11     1     3     3     0     0  5.921400444E-01 -5.903620422E-01  5.164337957E+01  5.165014822E+01  5.110000000E-04  0.00000E+00  9.000E+00
       2     1     1     2   502     0 -4.630830167E-01  4.240921271E-01  6.031467619E+01  6.031794480E+01  0.000000000E+00  0.00000E+00  9.000E+00
#rwgt            1          24  -8990366.6515418757                3     1095586           0
<weights>
-.11145E+08
-.12354E+08
-.97559E+07
-.15025E+08
-.78173E+07
-.91644E+07
-.13909E+08
-.11171E+08
-.11121E+08
-.10824E+08
-.10814E+08
-.10962E+08
-.11007E+08
-.10842E+08
-.10825E+08
-.11226E+08
-.11211E+08
-.11461E+08
-.11503E+08
-.11491E+08
-.11438E+08
-.11500E+08
-.11520E+08
-.11412E+08
-.11328E+08
-.11287E+08
-.11356E+08
-.11434E+08
-.11371E+08
-.11478E+08
-.11513E+08
-.11183E+08
-.11217E+08
-.11138E+08
-.11178E+08
-.11208E+08
-.11101E+08
-.11131E+08
-.11085E+08
-.11166E+08
-.11128E+08
-.11185E+08
-.11104E+08
-.11505E+08
-.10815E+08
</weights>
</event>
<event>
      7  10001  1.11453E+07  2.63929E+00 -1.00000E+00  3.09220E-01
      21    -1     0     0   502   501  0.000000000E+00  0.000000000E+00  1.286032469E+00  1.286032469E+00  0.000000000E+00  0.00000E+00  9.000E+00
      -4    -1     0     0     0   502  0.000000000E+00  0.000000000E+00 -4.843149573E+00  4.843149573E+00  0.000000000E+00  0.00000E+00  9.000E+00
      23     2     1     2     0     0 -7.363212346E-01  6.771647606E-01 -2.733727601E+00  3.378162752E+00  1.714058314E+00  0.00000E+00  9.000E+00
      11     1     3     3     0     0  2.926621359E-01 -3.820572093E-01 -9.289440621E-01  1.046210385E+00  5.110000000E-04  0.00000E+00  9.000E+00
     -11     1     3     3     0     0 -1.028983370E+00  1.059221970E+00 -1.804783539E+00  2.331952367E+00  5.110000000E-04  0.00000E+00  9.000E+00
      -4     1     1     2     0   511  1.071863866E-01 -1.236753942E+00 -1.288410927E+00  1.789148387E+00  0.000000000E+00  0.00000E+00  9.000E+00
      21     1     1     2   511   501  6.291348480E-01  5.595891812E-01  4.650214243E-01  9.618709028E-01  5.937135760E-08  0.00000E+00  9.000E+00
#rwgt            2         154   5863108.6959466860                3     1098509           0
<weights>
0.11145E+08
0.11659E+08
0.10320E+08
0.14170E+08
0.82687E+07
0.91702E+07
0.13910E+08
0.11217E+08
0.11070E+08
0.10820E+08
0.10830E+08
0.10945E+08
0.11035E+08
0.10844E+08
0.10838E+08
0.11223E+08
0.11209E+08
0.11457E+08
0.11466E+08
0.11464E+08
0.11432E+08
0.11479E+08
0.11514E+08
0.11298E+08
0.11395E+08
0.11367E+08
0.11060E+08
0.11439E+08
0.11318E+08
0.11447E+08
0.11491E+08
0.11170E+08
0.11223E+08
0.11136E+08
0.11175E+08
0.11269E+08
0.11038E+08
0.11047E+08
0.11143E+08
0.11155E+08
0.11138E+08
0.11167E+08
0.11123E+08
0.11495E+08
0.10822E+08
</weights>
</event>
<event>
      6  10001 -1.11453E+07  8.94427E-01 -1.00000E+00  2.66226E-01
      -2    -1     0     0     0   502  0.000000000E+00  0.000000000E+00  2.159532195E-02  2.159532195E-02  0.000000000E+00  0.00000E+00  9.000E+00
       2    -1     0     0   501     0  0.000000000E+00  0.000000000E+00 -2.062481555E+01  2.062481555E+01  0.000000000E+00  0.00000E+00  9.000E+00
      23     2     1     2     0     0  9.000979665E-02 -2.391886633E-01 -1.788802116E+01  1.791921103E+01  1.025431646E+00  0.00000E+00  9.000E+00
      11     1     3     3     0     0 -1.732813867E-01 -1.135051022E-01 -1.647899940E+01  1.648030132E+01  5.110000000E-04  0.00000E+00  9.000E+00
     -11     1     3     3     0     0  2.632911834E-01 -1.256835611E-01 -1.409021752E+00  1.438909713E+00  5.110000000E-04  0.00000E+00  9.000E+00
      21     1     1     2   501   502 -9.000979665E-02  2.391886633E-01 -2.715199075E+00  2.727199845E+00  4.214684851E-08  0.00000E+00  9.000E+00
#rwgt            1           8  -2693107.0722786970                3     1099083           0
<weights>
-.11145E+08
-.13117E+08
-.91131E+07
-.15942E+08
-.73019E+07
-.91702E+07
-.13910E+08
-.11195E+08
-.11094E+08
-.10967E+08
-.11006E+08
-.11090E+08
-.11017E+08
-.10999E+08
-.11007E+08
-.11088E+08
-.11284E+08
-.11190E+08
-.11416E+08
-.11422E+08
-.11177E+08
-.11290E+08
-.11307E+08
-.11250E+08
-.11239E+08
-.11235E+08
-.11099E+08
-.11397E+08
-.11016E+08
-.11275E+08
-.11271E+08
-.11145E+08
-.11189E+08
-.11088E+08
-.11238E+08
-.11104E+08
-.11195E+08
-.10985E+08
-.11263E+08
-.11095E+08
-.11186E+08
-.11212E+08
-.11074E+08
-.11306E+08
-.10991E+08
</weights>
</event>
<event>
      7  10001 -1.11453E+07  1.29288E+00 -1.00000E+00  4.72345E-01
       2    -1     0     0   501     0  0.000000000E+00  0.000000000E+00  3.081398274E+01  3.081398274E+01  0.000000000E+00  0.00000E+00  9.000E+00
      21    -1     0     0   502   511  0.000000000E+00  0.000000000E+00 -2.301315019E+00  2.301315019E+00  0.000000000E+00  0.00000E+00  9.000E+00
      23     2     1     2     0     0  4.508600662E-01  5.374747237E-02  2.462113757E+01  2.469540511E+01  1.859154307E+00  0.00000E+00  9.000E+00
      11     1     3     3     0     0  8.547249293E-01 -3.295919866E-02  5.200407170E+00  5.270282346E+00  5.110000000E-04  0.00000E+00  9.000E+00
     -11     1     3     3     0     0 -4.038648632E-01  8.670667103E-02  1.942073040E+01  1.942512276E+01  5.110000000E-04  0.00000E+00  9.000E+00
       2     1     1     2   502     0  6.957887716E-01  5.435349016E-01  5.935793197E+00  6.001099323E+00  0.000000000E+00  0.00000E+00  9.000E+00
      21     1     1     2   501   511 -1.146648838E+00 -5.972823740E-01 -2.044263042E+00  2.418793330E+00  5.161913656E-08  0.00000E+00  9.000E+00
#rwgt            1          24  -294814.90790795285                3     1101274           0
<weights>
-.11145E+08
-.15690E+07
-.19447E+08
-.25434E+08
-.15600E+07
0.61020E+07
-.37354E+08
-.11484E+08
-.10773E+08
-.11504E+08
-.11841E+08
-.11222E+08
-.11580E+08
-.11665E+08
-.11804E+08
-.11134E+08
-.10652E+08
-.10495E+08
-.10226E+08
-.10287E+08
-.10535E+08
-.10295E+08
-.10429E+08
-.99288E+07
-.11235E+08
-.11003E+08
-.92659E+07
-.10378E+08
-.10479E+08
-.10165E+08
-.10307E+08
-.10858E+08
-.11178E+08
-.11222E+08
-.10977E+08
-.11478E+08
-.10779E+08
-.99332E+07
-.12410E+08
-.10842E+08
-.11412E+08
-.11014E+08
-.11284E+08
-.10472E+08
-.11716E+08
</weights>
</event>
<event>
      6  10001 -1.11453E+07  8.94427E-01 -1.00000E+00  5.37725E-01
      21    -1     0     0   502   501  0.000000000E+00  0.000000000E+00  9.519145948E-03  9.519145948E-03  0.000000000E+00  0.00000E+00  9.000E+00
      -2    -1     0     0     0   502  0.000000000E+00  0.000000000E+00 -1.242826471E+02  1.242826471E+02  0.000000000E+00  0.00000E+00  9.000E+00
      23     2     1     2     0     0 -5.984759856E-01 -8.373800876E-02 -1.031021710E+02  1.031125863E+02  1.335146630E+00  0.00000E+00  9.000E+00
      11     1     3     3     0     0 -3.408559434E-01  6.115875383E-01 -4.085777778E+01  4.086377648E+01  5.110000000E-04  0.00000E+00  9.000E+00
     -11     1     3     3     0     0 -2.576200422E-01 -6.953255471E-01 -6.224439317E+01  6.224880985E+01  5.110000000E-04  0.00000E+00  9.000E+00
      -2     1     1     2     0   501  5.984759856E-01  8.373800876E-02 -2.117095699E+01  2.117957991E+01  0.000000000E+00  0.00000E+00  9.000E+00
#rwgt            1          14  -2753474.4727143748                3     1149655           0
<weights>
-.11145E+08
-.12160E+08
-.99731E+07
-.14779E+08
-.79910E+07
-.91702E+07
-.13910E+08
-.11141E+08
-.11147E+08
-.11213E+08
-.11232E+08
-.11109E+08
-.11192E+08
-.11246E+08
-.11241E+08
-.11049E+08
-.11189E+08
-.11103E+08
-.10949E+08
-.10924E+08
-.11124E+08
-.11034E+08
-.11015E+08
-.11136E+08
-.11026E+08
-.11080E+08
-.11142E+08
-.11049E+08
-.10978E+08
-.11034E+08
-.11042E+08
-.11159E+08
-.11095E+08
-.11294E+08
-.10997E+08
-.11081E+08
-.11187E+08
-.11133E+08
-.11182E+08
-.11099E+08
-.11172E+08
-.11282E+08
-.10998E+08
-.11040E+08
-.11234E+08
</weights>
</event>
<event>
      7  10001  1.11453E+07  4.51518E+00 -1.00000E+00  2.49034E-01
       3    -1     0     0   501     0  0.000000000E+00  0.000000000E+00  8.978353279E-01  8.978353279E-01  0.000000000E+00  0.00000E+00  9.000E+00
      21    -1     0     0   502   501  0.000000000E+00  0.000000000E+00 -8.189946264E+00  8.189946264E+00  0.000000000E+00  0.00000E+00  9.000E+00
      23     2     1     2     0     0 -1.592292649E-01 -2.633595156E-02  1.248834529E-01  1.080686407E+00  1.061244407E+00  0.00000E+00  9.000E+00
      11     1     3     3     0     0 -4.581695230E-02  2.710948966E-01  5.110019309E-01  5.802713766E-01  5.110000000E-04  0.00000E+00  9.000E+00
     -11     1     3     3     0     0 -1.134123126E-01 -2.974308482E-01 -3.861184780E-01  5.004150300E-01  5.110000000E-04  0.00000E+00  9.000E+00
       3     1     1     2   511     0 -9.511908280E-01  1.590103113E-01 -6.851554272E-01  1.182998829E+00  0.000000000E+00  0.00000E+00  9.000E+00
      21     1     1     2   502   511  1.110420093E+00 -1.326743597E-01 -6.731838962E+00  6.824096356E+00  8.429369702E-08  0.00000E+00  9.000E+00
#rwgt            1          26   494325.54721203021                3     1150183           0
<weights>
0.11145E+08
0.13224E+08
0.88784E+07
0.13245E+08
0.89080E+07
0.11061E+08
0.11008E+08
0.11228E+08
0.11057E+08
0.10698E+08
0.10689E+08
0.10896E+08
0.10955E+08
0.10715E+08
0.10699E+08
0.11254E+08
0.11258E+08
0.11598E+08
0.11622E+08
0.11620E+08
0.11561E+08
0.11638E+08
0.11682E+08
0.11397E+08
0.11476E+08
0.11432E+08
0.11075E+08
0.11575E+08
0.11427E+08
0.11607E+08
0.11656E+08
0.11202E+08
0.11239E+08
0.11129E+08
0.11193E+08
0.11278E+08
0.11034E+08
0.11105E+08
0.11026E+08
0.11191E+08
0.11106E+08
0.11189E+08
0.11100E+08
0.11646E+08
0.10687E+08
</weights>
</event>
<event>
      7  10001  1.11453E+07  1.77516E+00 -1.00000E+00  3.77620E-01
      21    -1     0     0   512   501  0.000000000E+00  0.000000000E+00  9.208176901E+00  9.208176901E+00  0.000000000E+00  0.00000E+00  9.000E+00
      -2    -1     0     0     0   502  0.000000000E+00  0.000000000E+00 -1.153427077E+01  1.153427077E+01  0.000000000E+00  0.00000E+00  9.000E+00
      23     2     1     2     0     0 -8.187771958E-01 -4.844963394E-01 -6.694975671E+00  6.850428343E+00  1.095689941E+00  0.00000E+00  9.000E+00
      11     1     3     3     0     0 -6.908085478E-01 -7.770871261E-01 -3.862208213E+00  3.999716664E+00  5.110000000E-04  0.00000E+00  9.000E+00
     -11     1     3     3     0     0 -1.279686480E-01  2.925907867E-01 -2.832767458E+00  2.850711679E+00  5.110000000E-04  0.00000E+00  9.000E+00
      -2     1     1     2     0   501  1.035743050E+00 -1.277359013E+00 -4.529241854E+00  4.818551803E+00  0.000000000E+00  0.00000E+00  9.000E+00
      21     1     1     2   512   502 -2.169658546E-01  1.761855352E+00  8.898123652E+00  9.073467529E+00  1.685873940E-07  0.00000E+00  9.000E+00
#rwgt            1          14   880126.63330754940                3     1163470           0
<weights>
0.11145E+08
0.14318E+08
0.81768E+07
0.12644E+08
0.92813E+07
0.12204E+08
0.92526E+07
0.11091E+08
0.11190E+08
0.10796E+08
0.10774E+08
0.10984E+08
0.10905E+08
0.10803E+08
0.10785E+08
0.11085E+08
0.11437E+08
0.11540E+08
0.11487E+08
0.11457E+08
0.11530E+08
0.11538E+08
0.11573E+08
0.11431E+08
0.11336E+08
0.11523E+08
0.10968E+08
0.11552E+08
0.11214E+08
0.11522E+08
0.11531E+08
0.11098E+08
0.11312E+08
0.11215E+08
0.11108E+08
0.10815E+08
0.11499E+08
0.11079E+08
0.11071E+08
0.11175E+08
0.11109E+08
0.11292E+08
0.10989E+08
0.11538E+08
0.10786E+08
</weights>
</event>
<event>
      6  10001 -1.11453E+07  8.94427E-01 -1.00000E+00  6.25621E-01
       3    -1     0     0   501     0  0.000000000E+00  0.000000000E+00  9.002787545E+01  9.002787545E+01  0.000000000E+00  0.00000E+00  9.000E+00
      21    -1     0     0   502   501  0.000000000E+00  0.000000000E+00 -1.483281385E-02  1.483281385E-02  0.000000000E+00  0.00000E+00  9.000E+00
      23     2     1     2     0     0  1.908089722E-01  2.676068858E-01  8.541725307E+01  8.543518146E+01  1.719036829E+00  0.00000E+00  9.000E+00
      11     1     3     3     0     0 -1.878902522E-02 -5.096392613E-01  9.513365975E+00  9.527025645E+00  5.110000000E-04  0.00000E+00  9.000E+00
     -11     1     3     3     0     0  2.095979974E-01  7.772461471E-01  7.590388709E+01  7.590815581E+01  5.110000000E-04  0.00000E+00  9.000E+00
       3     1     1     2   502     0 -1.908089722E-01 -2.676068858E-01  4.595789568E+00  4.607526805E+00  0.000000000E+00  0.00000E+00  9.000E+00
#rwgt            1          26  -696493.78434270946                3     1171608           0
<weights>
-.11145E+08
-.12141E+08
-.99580E+07
-.14755E+08
-.79789E+07
-.91706E+07
-.13910E+08
-.11176E+08
-.11115E+08
-.10829E+08
-.10822E+08
-.10964E+08
-.11011E+08
-.10848E+08
-.10832E+08
-.11225E+08
-.11206E+08
-.11454E+08
-.11492E+08
-.11481E+08
-.11431E+08
-.11491E+08
-.11512E+08
-.11396E+08
-.11329E+08
-.11286E+08
-.11324E+08
-.11426E+08
-.11364E+08
-.11468E+08
-.11504E+08
-.11181E+08
-.11216E+08
-.11138E+08
-.11176E+08
-.11212E+08
-.11097E+08
-.11122E+08
-.11094E+08
-.11164E+08
-.11130E+08
-.11183E+08
-.11105E+08
-.11497E+08
-.10821E+08
</weights>
</event>
<event>
      7  10001 -1.11453E+07  1.12560E+00 -1.00000E+00  5.18824E-01
      21    -1     0     0   502   511  0.000000000E+00  0.000000000E+00  1.619918552E+02  1.619918552E+02  0.000000000E+00  0.00000E+00  9.000E+00
       2    -1     0     0   501     0  0.000000000E+00  0.000000000E+00 -3.983346161E+01  3.983346161E+01  0.000000000E+00  0.00000E+00  9.000E+00
      23     2     1     2     0     0  9.311023903E-01 -4.980460374E-01 -3.887412840E+01  3.890349262E+01  1.081146223E+00  0.00000E+00  9.000E+00
      11     1     3     3     0     0 -1.147978863E-03  2.202874533E-01 -2.322998550E+00  2.333420324E+00  5.110000000E-04  0.00000E+00  9.000E+00
     -11     1     3     3     0     0  9.322503692E-01 -7.183334907E-01 -3.655112985E+01  3.657007229E+01  5.110000000E-04  0.00000E+00  9.000E+00
       2     1     1     2   502     0 -2.065974821E-01 -3.633919916E-01 -8.963554886E-01  9.890345904E-01  0.000000000E+00  0.00000E+00  9.000E+00
      21     1     1     2   501   511 -7.245049082E-01  8.614380290E-01  1.619288775E+02  1.619327896E+02  3.303624740E-06  0.00000E+00  9.000E+00
#rwgt            1          17  -1704184.5381220866                3     1171808           0
<weights>
-.11145E+08
-.83137E+07
-.13629E+08
-.16574E+08
-.70293E+07
-.49591E+07
-.20374E+08
-.11153E+08
-.11137E+08
-.11171E+08
-.11191E+08
-.11101E+08
-.11223E+08
-.11198E+08
-.11198E+08
-.11217E+08
-.10984E+08
-.11125E+08
-.11012E+08
-.11006E+08
-.11131E+08
-.11076E+08
-.11072E+08
-.11146E+08
-.11055E+08
-.11094E+08
-.11149E+08
-.11068E+08
-.11097E+08
-.11066E+08
-.11086E+08
-.11101E+08
-.11169E+08
-.11162E+08
-.11113E+08
-.11204E+08
-.11084E+08
-.11065E+08
-.11260E+08
-.11097E+08
-.11188E+08
-.11137E+08
-.11154E+08
-.11093E+08
-.11186E+08
</weights>
</event>
<event>
      6  10001 -1.11453E+07  8.94427E-01 -1.00000E+00  3.29126E-01
       2    -1     0     0   501     0  0.000000000E+00  0.000000000E+00  2.537133676E+02  2.537133676E+02  0.000000000E+00  0.00000E+00  9.000E+00
      -2    -1     0     0     0   502  0.000000000E+00  0.000000000E+00 -9.649769661E-03  9.649769661E-03  0.000000000E+00  0.00000E+00  9.000E+00
      23     2     1     2     0     0 -4.773972773E-01 -6.143589059E-01  6.536006445E+01  6.537775697E+01  1.306804101E+00  0.00000E+00  9.000E+00
      11     1     3     3     0     0 -3.638877541E-01 -1.012272907E+00  5.255885291E+01  5.256985953E+01  5.110000000E-04  0.00000E+00  9.000E+00
     -11     1     3     3     0     0 -1.135095232E-01  3.979140013E-01  1.280121153E+01  1.280789744E+01  5.110000000E-04  0.00000E+00  9.000E+00
      21     1     1     2   501   502  4.773972773E-01  6.143589059E-01  1.883436534E+02  1.883452604E+02  2.697398305E-06  0.00000E+00  9.000E+00
#rwgt            1          23  -615291.96092724195                3     1181267           0
<weights>
-.11145E+08
-.13023E+08
-.90591E+07
-.15842E+08
-.72591E+07
-.91616E+07
-.13909E+08
-.11145E+08
-.11157E+08
-.10816E+08
-.10800E+08
-.10961E+08
-.10996E+08
-.10831E+08
-.10811E+08
-.11223E+08
-.11224E+08
-.11476E+08
-.11517E+08
-.11503E+08
-.11452E+08
-.11517E+08
-.11533E+08
-.11433E+08
-.11324E+08
-.11294E+08
-.11364E+08
-.11451E+08
-.11379E+08
-.11497E+08
-.11528E+08
-.11185E+08
-.11220E+08
-.11137E+08
-.11181E+08
-.11189E+08
-.11123E+08
-.11150E+08
-.11067E+08
-.11170E+08
-.11124E+08
-.11189E+08
-.11099E+08
-.11518E+08
-.10803E+08
</weights>
</event>
<event>
      6  10001 -1.11453E+07  8.94427E-01 -1.00000E+00  5.03047E-01
       1    -1     0     0   501     0  0.000000000E+00  0.000000000E+00  2.460795525E+02  2.460795525E+02  0.000000000E+00  0.00000E+00  9.000E+00
      21    -1     0     0   502   501  0.000000000E+00  0.000000000E+00 -4.980671956E-03  4.980671956E-03  0.000000000E+00  0.00000E+00  9.000E+00
      23     2     1     2     0     0 -9.869051300E-02  6.513427835E-01  2.096214459E+02  2.096254550E+02  1.116619192E+00  0.00000E+00  9.000E+00
      11     1     3     3     0     0  4.055868344E-01 -6.102497995E-02  5.369441386E+01  5.369598035E+01  5.110000000E-04  0.00000E+00  9.000E+00
     -11     1     3     3     0     0 -5.042773474E-01  7.123677635E-01  1.559270320E+02  1.559294747E+02  5.110000000E-04  0.00000E+00  9.000E+00
       1     1     1     2   502     0  9.869051300E-02 -6.513427835E-01  3.645312597E+01  3.645907816E+01  0.000000000E+00  0.00000E+00  9.000E+00
#rwgt            1          22  -2139955.2708512284                3     1181873           0
<weights>
-.11145E+08
-.12063E+08
-.10034E+08
-.14670E+08
-.80404E+07
-.91649E+07
-.13909E+08
-.11173E+08
-.11119E+08
-.10826E+08
-.10817E+08
-.10963E+08
-.11008E+08
-.10844E+08
-.10827E+08
-.11225E+08
-.11209E+08
-.11459E+08
-.11500E+08
-.11488E+08
-.11436E+08
-.11497E+08
-.11517E+08
-.11406E+08
-.11328E+08
-.11286E+08
-.11345E+08
-.11431E+08
-.11369E+08
-.11475E+08
-.11510E+08
-.11182E+08
-.11217E+08
-.11138E+08
-.11177E+08
-.11209E+08
-.11100E+08
-.11128E+08
-.11088E+08
-.11165E+08
-.11129E+08
-.11185E+08
-.11104E+08
-.11502E+08
-.10817E+08
</weights>
</event>
<event>
      7  10001  1.11453E+07  8.94427E-01 -1.00000E+00  6.07649E-01
      -1    -1     0     0     0   501  0.000000000E+00  0.000000000E+00  4.900335484E+00  4.900335484E+00  0.000000000E+00  0.00000E+00  9.000E+00
       3    -1     0     0   501     0  0.000000000E+00  0.000000000E+00 -3.379011016E+00  3.379011016E+00  0.000000000E+00  0.00000E+00  9.000E+00
      23     2     1     2     0     0 -3.054602994E-01 -1.991370992E-01  4.657861281E+00  4.837488863E+00  1.254059491E+00  0.00000E+00  9.000E+00
      11     1     3     3     0     0  1.119350125E-01 -6.580938362E-01  2.011081760E+00  2.118977832E+00  5.110000000E-04  0.00000E+00  9.000E+00
     -11     1     3     3     0     0 -4.173953119E-01  4.589567370E-01  2.646779521E+00  2.718511031E+00  5.110000000E-04  0.00000E+00  9.000E+00
       3     1     1     2   502     0  3.170139399E-01  3.542820289E-01 -3.227041896E+00  3.261872621E+00  0.000000000E+00  0.00000E+00  9.000E+00
      -1     1     1     2     0   502 -1.155364049E-02 -1.551449297E-01  9.050508355E-02  1.799850159E-01  0.000000000E+00  0.00000E+00  9.000E+00
#rwgt            2         145   19319.694098662774                3     1182310           0
<weights>
0.11145E+08
0.11291E+08
0.10805E+08
0.13723E+08
0.86573E+07
0.91702E+07
0.13910E+08
0.11199E+08
0.11087E+08
0.10835E+08
0.10860E+08
0.11033E+08
0.10953E+08
0.10863E+08
0.10859E+08
0.11305E+08
0.11019E+08
0.11288E+08
0.11702E+08
0.11666E+08
0.11273E+08
0.11441E+08
0.11518E+08
0.11761E+08
0.11030E+08
0.10632E+08
0.12678E+08
0.11183E+08
0.11649E+08
0.11409E+08
0.11494E+08
0.11203E+08
0.11184E+08
0.11152E+08
0.11160E+08
0.11251E+08
0.11055E+08
0.11086E+08
0.11114E+08
0.11165E+08
0.11127E+08
0.11195E+08
0.11093E+08
0.11472E+08
0.10844E+08
</weights>
</event>
<event>
      7  10001  1.11453E+07  2.28706E+00 -1.00000E+00  3.30773E-01
       2    -1     0     0   501     0  0.000000000E+00  0.000000000E+00  6.035920199E+00  6.035920199E+00  0.000000000E+00  0.00000E+00  9.000E+00
      21    -1     0     0   502   511  0.000000000E+00  0.000000000E+00 -3.257861384E+00  3.257861384E+00  0.000000000E+00  0.00000E+00  9.000E+00
      23     2     1     2     0     0 -1.542716786E-01  1.211791699E-01  1.589591688E+00  1.982217713E+00  1.167861802E+00  0.00000E+00  9.000E+00
      11     1     3     3     0     0  1.075932246E-01 -4.251570748E-01  2.332847032E-01  4.967462673E-01  5.110000000E-04  0.00000E+00  9.000E+00
     -11     1     3     3     0     0 -2.618649032E-01  5.463362447E-01  1.356306984E+00  1.485471446E+00  5.110000000E-04  0.00000E+00  9.000E+00
       2     1     1     2   502     0  2.329407413E+00  5.855289892E-01  3.378346432E+00  4.145142664E+00  0.000000000E+00  0.00000E+00  9.000E+00
      21     1     1     2   501   511 -2.175135734E+00 -7.067081591E-01 -2.189879304E+00  3.166421206E+00  5.161913656E-08  0.00000E+00  9.000E+00
#rwgt            1          24   695944.09045958729                3     1183150           0
<weights>
0.11184E+08
0.14210E+08
0.82239E+07
0.12084E+08
0.96566E+07
0.12556E+08
0.88092E+07
0.11202E+08
0.11163E+08
0.10766E+08
0.10710E+08
0.10957E+08
0.10975E+08
0.10765E+08
0.10727E+08
0.11285E+08
0.11317E+08
0.11645E+08
0.11686E+08
0.11674E+08
0.11610E+08
0.11707E+08
0.11708E+08
0.11579E+08
0.11412E+08
0.11394E+08
0.11402E+08
0.11628E+08
0.11520E+08
0.11698E+08
0.11719E+08
0.11270E+08
0.11258E+08
0.11161E+08
0.11247E+08
0.11239E+08
0.11152E+08
0.11331E+08
0.10942E+08
0.11249E+08
0.11128E+08
0.11241E+08
0.11124E+08
0.11688E+08
0.10727E+08
</weights>
</event>
<event>
      6  10001 -1.11453E+07  8.94427E-01 -1.00000E+00  5.78930E-01
      21    -1     0     0   502   501  0.000000000E+00  0.000000000E+00  7.222935912E-03  7.222935912E-03  0.000000000E+00  0.00000E+00  9.000E+00
       2    -1     0     0   501     0  0.000000000E+00  0.000000000E+00 -1.488523827E+02  1.488523827E+02  0.000000000E+00  0.00000E+00  9.000E+00
      23     2     1     2     0     0 -3.447433169E-01  2.824277998E-01 -1.349953951E+02  1.350026725E+02  1.329015748E+00  0.00000E+00  9.000E+00
      11     1     3     3     0     0 -5.269197269E-01 -3.622998129E-01 -4.203924151E+01  4.204410461E+01  5.110000000E-04  0.00000E+00  9.000E+00
     -11     1     3     3     0     0  1.821764100E-01  6.447276127E-01 -9.295615354E+01  9.295856789E+01  5.110000000E-04  0.00000E+00  9.000E+00
       2     1     1     2   502     0  3.447433169E-01 -2.824277998E-01 -1.384976470E+01  1.385693312E+01  0.000000000E+00  0.00000E+00  9.000E+00
#rwgt            1          17  -11192729.709469566                3     1211770           0
<weights>
-.11145E+08
-.11889E+08
-.10272E+08
-.14449E+08
-.82303E+07
-.91702E+07
-.13910E+08
-.11137E+08
-.11153E+08
-.11169E+08
-.11172E+08
-.11134E+08
-.11163E+08
-.11174E+08
-.11173E+08
-.11253E+08
-.10958E+08
-.11155E+08
-.11050E+08
-.11044E+08
-.11157E+08
-.11106E+08
-.11122E+08
-.11210E+08
-.11027E+08
-.11087E+08
-.11167E+08
-.11118E+08
-.11088E+08
-.11113E+08
-.11119E+08
-.11094E+08
-.11185E+08
-.11156E+08
-.11122E+08
-.11140E+08
-.11145E+08
-.11160E+08
-.11133E+08
-.11131E+08
-.11154E+08
-.11179E+08
-.11109E+08
-.11114E+08
-.11173E+08
</weights>
</event>
<event>
      6  10001 -1.11453E+07  8.94427E-01 -1.00000E+00  3.67233E-01
      -3    -1     0     0     0   502  0.000000000E+00  0.000000000E+00  3.602023352E+02  3.602023352E+02  0.000000000E+00  0.00000E+00  9.000E+00
       3    -1     0     0   501     0  0.000000000E+00  0.000000000E+00 -2.487488190E-02  2.487488190E-02  0.000000000E+00  0.00000E+00  9.000E+00
      23     2     1     2     0     0  1.039354774E-01 -2.503966218E-01  5.271072321E+01  5.276035345E+01  2.271795210E+00  0.00000E+00  9.000E+00
      11     1     3     3     0     0  5.683393758E-01  5.557473532E-01  7.882818523E+00  7.922795776E+00  5.110000000E-04  0.00000E+00  9.000E+00
     -11     1     3     3     0     0 -4.644038984E-01 -8.061439750E-01  4.482790469E+01  4.483755767E+01  5.110000000E-04  0.00000E+00  9.000E+00
      21     1     1     2   501   502 -1.039354774E-01  2.503966218E-01  3.074667371E+02  3.074668566E+02  5.394796609E-06  0.00000E+00  9.000E+00
#rwgt            1           6  -123075.58412379274                3     1212877           0
<weights>
-.11145E+08
-.12248E+08
-.97900E+07
-.14891E+08
-.78445E+07
-.91667E+07
-.13909E+08
-.11168E+08
-.11123E+08
-.10811E+08
-.10796E+08
-.10963E+08
-.10991E+08
-.10827E+08
-.10808E+08
-.11220E+08
-.11228E+08
-.11452E+08
-.11614E+08
-.11574E+08
-.11431E+08
-.11520E+08
-.11543E+08
-.11617E+08
-.11288E+08
-.11239E+08
-.12263E+08
-.11434E+08
-.11421E+08
-.11500E+08
-.11537E+08
-.11193E+08
-.11214E+08
-.11137E+08
-.11180E+08
-.11205E+08
-.11105E+08
-.11157E+08
-.11059E+08
-.11173E+08
-.11122E+08
-.11189E+08
-.11099E+08
-.11523E+08
-.10798E+08
</weights>
</event>
<event>
      6  10001 -1.11453E+07  8.94427E-01 -1.00000E+00  3.44666E-01
       1    -1     0     0   501     0  0.000000000E+00  0.000000000E+00  2.020040148E+02  2.020040148E+02  0.000000000E+00  0.00000E+00  9.000E+00
      21    -1     0     0   502   501  0.000000000E+00  0.000000000E+00 -1.712379263E-02  1.712379263E-02  0.000000000E+00  0.00000E+00  9.000E+00
      23     2     1     2     0     0 -1.943661480E-01  3.019784804E-01  1.991428232E+02  1.991544871E+02  2.125258274E+00  0.00000E+00  9.000E+00
      11     1     3     3     0     0 -7.425242775E-02  9.761681035E-01  4.735164215E+01  4.736176128E+01  5.110000000E-04  0.00000E+00  9.000E+00
     -11     1     3     3     0     0 -1.201137203E-01 -6.741896231E-01  1.517911811E+02  1.517927258E+02  5.110000000E-04  0.00000E+00  9.000E+00
       1     1     1     2   502     0  1.943661480E-01 -3.019784804E-01  2.844067778E+00  2.866651484E+00  0.000000000E+00  0.00000E+00  9.000E+00
#rwgt            1          22  -3210813.3417916833                3     1214443           0
<weights>
-.11145E+08
-.12018E+08
-.10083E+08
-.14614E+08
-.80794E+07
-.91658E+07
-.13909E+08
-.11176E+08
-.11115E+08
-.10830E+08
-.10823E+08
-.10964E+08
-.11012E+08
-.10849E+08
-.10833E+08
-.11225E+08
-.11206E+08
-.11453E+08
-.11491E+08
-.11480E+08
-.11430E+08
-.11490E+08
-.11511E+08
-.11395E+08
-.11329E+08
-.11285E+08
-.11322E+08
-.11425E+08
-.11363E+08
-.11466E+08
-.11502E+08
-.11181E+08
-.11216E+08
-.11138E+08
-.11176E+08
-.11212E+08
-.11097E+08
-.11120E+08
-.11096E+08
-.11163E+08
-.11130E+08
-.11183E+08
-.11106E+08
-.11496E+08
-.10823E+08
</weights>
</event>
<event>
      6  10001 -1.11453E+07  8.94427E-01 -1.00000E+00  3.86256E-01
       2    -1     0     0   501     0  0.000000000E+00  0.000000000E+00  9.868894221E+01  9.868894221E+01  0.000000000E+00  0.00000E+00  9.000E+00
      21    -1     0     0   502   501  0.000000000E+00  0.000000000E+00 -1.615978706E-02  1.615978706E-02  0.000000000E+00  0.00000E+00  9.000E+00
      23     2     1     2     0     0 -8.052665673E-01  2.626671106E-01  8.202982512E+01  8.204060452E+01  1.025247836E+00  0.00000E+00  9.000E+00
      11     1     3     3     0     0 -9.622775746E-01  4.630574847E-01  6.253781974E+01  6.254693676E+01  5.110000000E-04  0.00000E+00  9.000E+00
     -11     1     3     3     0     0  1.570110073E-01 -2.003903741E-01  1.949200538E+01  1.949366776E+01  5.110000000E-04  0.00000E+00  9.000E+00
       2     1     1     2   502     0  8.052665673E-01 -2.626671106E-01  1.664295730E+01  1.666449747E+01  0.000000000E+00  0.00000E+00  9.000E+00
#rwgt            1          24  -11632937.542972619                3     1216290           0
<weights>
-.11145E+08
-.12521E+08
-.96009E+07
-.15213E+08
-.76925E+07
-.91739E+07
-.13910E+08
-.11174E+08
-.11117E+08
-.10827E+08
-.10819E+08
-.10963E+08
-.11009E+08
-.10845E+08
-.10829E+08
-.11225E+08
-.11208E+08
-.11457E+08
-.11496E+08
-.11485E+08
-.11434E+08
-.11495E+08
-.11515E+08
-.11402E+08
-.11328E+08
-.11285E+08
-.11333E+08
-.11429E+08
-.11367E+08
-.11472E+08
-.11507E+08
-.11182E+08
-.11217E+08
-.11138E+08
-.11177E+08
-.11210E+08
-.11099E+08
-.11125E+08
-.11091E+08
-.11165E+08
-.11129E+08
-.11184E+08
-.11105E+08
-.11500E+08
-.10819E+08
</weights>
</event>
<event>
      6  10001 -1.11453E+07  8.94427E-01 -1.00000E+00  2.45373E-01
       2    -1     0     0   501     0  0.000000000E+00  0.000000000E+00  7.751100058E+02  7.751100058E+02  0.000000000E+00  0.00000E+00  9.000E+00
      21    -1     0     0   502   501  0.000000000E+00  0.000000000E+00 -1.051417454E-02  1.051417454E-02  0.000000000E+00  0.00000E+00  9.000E+00
      23     2     1     2     0     0 -1.471342398E+00 -1.864445100E+00  2.785087870E+02  2.785241357E+02  1.705490921E+00  0.00000E+00  9.000E+00
      11     1     3     3     0     0 -2.078727185E-02 -3.449551678E-02  1.007911653E+02  1.007911734E+02  5.110000000E-04  0.00000E+00  9.000E+00
     -11     1     3     3     0     0 -1.450555126E+00 -1.829949583E+00  1.777176217E+02  1.777329623E+02  5.110000000E-04  0.00000E+00  9.000E+00
       2     1     1     2   502     0  1.471342398E+00  1.864445100E+00  4.965907046E+02  4.965963843E+02  0.000000000E+00  0.00000E+00  9.000E+00
#rwgt            1          24  -24068016.837188300                3     1220705           0
<weights>
-.11145E+08
-.11821E+08
-.10214E+08
-.14380E+08
-.81848E+07
-.91618E+07
-.13909E+08
-.11174E+08
-.11117E+08
-.10829E+08
-.10821E+08
-.10964E+08
-.11011E+08
-.10847E+08
-.10831E+08
-.11225E+08
-.11207E+08
-.11455E+08
-.11494E+08
-.11483E+08
-.11432E+08
-.11492E+08
-.11512E+08
-.11400E+08
-.11328E+08
-.11285E+08
-.11335E+08
-.11427E+08
-.11365E+08
-.11469E+08
-.11505E+08
-.11181E+08
-.11217E+08
-.11138E+08
-.11176E+08
-.11211E+08
-.11099E+08
-.11123E+08
-.11093E+08
-.11164E+08
-.11130E+08
-.11184E+08
-.11105E+08
-.11498E+08
-.10821E+08
</weights>
</event>
<event>
      6  10001 -1.11453E+07  8.94427E-01 -1.00000E+00  5.62275E-01
      21    -1     0     0   502   501  0.000000000E+00  0.000000000E+00  3.352836834E-01  3.352836834E-01  0.000000000E+00  0.00000E+00  9.000E+00
       5    -1     0     0   501     0  0.000000000E+00  0.000000000E+00 -2.476297322E+00  2.476297322E+00  0.000000000E+00  0.00000E+00  9.000E+00
      23     2     1     2     0     0 -2.220056422E-01  2.794170692E-01 -2.175690115E+00  2.453024369E+00  1.075332821E+00  0.00000E+00  9.000E+00
      11     1     3     3     0     0  2.573413819E-01  5.201054828E-01 -1.336763444E+00  1.457282082E+00  5.110000000E-04  0.00000E+00  9.000E+00
     -11     1     3     3     0     0 -4.793470241E-01 -2.406884135E-01 -8.389266703E-01  9.957422866E-01  5.110000000E-04  0.00000E+00  9.000E+00
       5     1     1     2   502     0  2.220056422E-01 -2.794170692E-01  3.467647581E-02  3.585566367E-01  0.000000000E+00  0.00000E+00  9.000E+00
#rwgt            1          20  -140242.18546424102                3     1221202           0
<weights>
-.11145E+08
-.75946E+07
-.13360E+08
-.15958E+08
-.75402E+07
-.52197E+07
-.19974E+08
-.11201E+08
-.11088E+08
-.10969E+08
-.11012E+08
-.11022E+08
-.11114E+08
-.11007E+08
-.11015E+08
-.11200E+08
-.11116E+08
-.11268E+08
-.11275E+08
-.11270E+08
-.11259E+08
-.11270E+08
-.11306E+08
-.11184E+08
-.11276E+08
-.11212E+08
-.11120E+08
-.11230E+08
-.11210E+08
-.11234E+08
-.11281E+08
-.11127E+08
-.11204E+08
-.11152E+08
-.11143E+08
-.11232E+08
-.11068E+08
-.10947E+08
-.11300E+08
-.11108E+08
-.11178E+08
-.11155E+08
-.11135E+08
-.11301E+08
-.10994E+08
</weights>
</event>
<event>
      6  10001 -1.11453E+07  8.94427E-01 -1.00000E+00  6.01592E-01
      21    -1     0     0   502   501  0.000000000E+00  0.000000000E+00  2.217651343E-02  2.217651343E-02  0.000000000E+00  0.00000E+00  9.000E+00
       3    -1     0     0   501     0  0.000000000E+00  0.000000000E+00 -6.128803229E+01  6.128803229E+01  0.000000000E+00  0.00000E+00  9.000E+00
      23     2     1     2     0     0  5.849358799E-01  1.001902672E-01 -4.011629253E+01  4.015232106E+01  1.593666339E+00  0.00000E+00  9.000E+00
      11     1     3     3     0     0  6.788566457E-01  2.118726825E-01 -3.977228895E+01  3.977864635E+01  5.110000000E-04  0.00000E+00  9.000E+00
     -11     1     3     3     0     0 -9.392076580E-02 -1.116824153E-01 -3.440035790E-01  3.736747190E-01  5.110000000E-04  0.00000E+00  9.000E+00
       3     1     1     2   502     0 -5.849358799E-01 -1.001902672E-01 -2.114956325E+01  2.115788774E+01  0.000000000E+00  0.00000E+00  9.000E+00
#rwgt            1          18  -937871.36014000070                3     1223548           0
<weights>
-.11145E+08
-.12664E+08
-.94887E+07
-.15391E+08
-.76028E+07
-.91702E+07
-.13910E+08
-.11164E+08
-.11126E+08
-.11015E+08
-.11169E+08
-.11314E+08
-.10860E+08
-.11118E+08
-.11111E+08
-.12169E+08
-.97506E+07
-.11435E+08
-.10742E+08
-.10786E+08
-.11351E+08
-.11121E+08
-.11200E+08
-.10580E+08
-.11558E+08
-.10157E+08
-.11177E+08
-.10337E+08
-.12103E+08
-.11040E+08
-.11218E+08
-.11201E+08
-.11093E+08
-.11221E+08
-.11076E+08
-.11238E+08
-.11059E+08
-.10936E+08
-.11382E+08
-.11100E+08
-.11177E+08
-.11236E+08
-.11047E+08
-.11184E+08
-.11096E+08
</weights>
</event>
<event>
      6  10001  1.11453E+07  8.94427E-01 -1.00000E+00  5.91220E-01
       1    -1     0     0   501     0  0.000000000E+00  0.000000000E+00  1.425782568E+00  1.425782568E+00  0.000000000E+00  0.00000E+00  9.000E+00
      21    -1     0     0   502   501  0.000000000E+00  0.000000000E+00 -6.766269987E+00  6.766269987E+00  0.000000000E+00  0.00000E+00  9.000E+00
      23     2     1     2     0     0 -3.663814722E-01  1.049183314E-03 -2.751138258E+00  5.576910961E+00  4.837244842E+00  0.00000E+00  9.000E+00
      11     1     3     3     0     0 -3.223139482E-01  5.440042131E-01  1.323092506E+00  1.466424531E+00  5.110000000E-04  0.00000E+00  9.000E+00
     -11     1     3     3     0     0 -4.406752401E-02 -5.429550298E-01 -4.074230764E+00  4.110486430E+00  5.110000000E-04  0.00000E+00  9.000E+00
       1     1     1     2   502     0  3.663814722E-01 -1.049183314E-03 -2.589349161E+00  2.615141595E+00  0.000000000E+00  0.00000E+00  9.000E+00
#rwgt            1          22   95618.317627492608                3     1223805           0
<weights>
0.11145E+08
0.19271E+08
0.31951E+07
0.99045E+07
0.11473E+08
0.18359E+08
-.19624E+06
0.11291E+08
0.10983E+08
0.99763E+07
0.98308E+07
0.10565E+08
0.10525E+08
0.99296E+07
0.98549E+07
0.11382E+08
0.11641E+08
0.12472E+08
0.12565E+08
0.12570E+08
0.12361E+08
0.12618E+08
0.12696E+08
0.11997E+08
0.11983E+08
0.11976E+08
0.11029E+08
0.12486E+08
0.12015E+08
0.12600E+08
0.12657E+08
0.11385E+08
0.11353E+08
0.11079E+08
0.11316E+08
0.11381E+08
0.10964E+08
0.11528E+08
0.10323E+08
0.11421E+08
0.10906E+08
0.11283E+08
0.11002E+08
0.12567E+08
0.98674E+07
</weights>
</event>
<event>
      6  10001 -1.11453E+07  8.94427E-01 -1.00000E+00  2.56883E-01
       2    -1     0     0   501     0  0.000000000E+00  0.000000000E+00  4.081581485E+02  4.081581485E+02  0.000000000E+00  0.00000E+00  9.000E+00
      -2    -1     0     0     0   502  0.000000000E+00  0.000000000E+00 -1.724394613E-02  1.724394613E-02  0.000000000E+00  0.00000E+00  9.000E+00
      23     2     1     2     0     0 -2.771249555E-01 -9.705737971E-02  4.067710270E+02  4.067743989E+02  1.630026076E+00  0.00000E+00  9.000E+00
      11     1     3     3     0     0 -3.461109152E-01  6.248464067E-01  1.016304455E+02  1.016329557E+02  5.110000000E-04  0.00000E+00  9.000E+00
     -11     1     3     3     0     0  6.898595972E-02 -7.219037864E-01  3.051405814E+02  3.051414432E+02  5.110000000E-04  0.00000E+00  9.000E+00
      21     1     1     2   501   502  2.771249555E-01  9.705737971E-02  1.369877636E+00  1.400993617E+00  2.091477640E-07  0.00000E+00  9.000E+00
#rwgt            1          23  -2789390.4974013115                3     1236651           0
<weights>
-.11145E+08
-.12849E+08
-.92194E+07
-.15629E+08
-.73875E+07
-.91621E+07
-.13909E+08
-.11114E+08
-.11199E+08
-.10820E+08
-.10803E+08
-.10964E+08
-.10995E+08
-.10836E+08
-.10814E+08
-.11217E+08
-.11230E+08
-.11475E+08
-.11505E+08
-.11492E+08
-.11452E+08
-.11514E+08
-.11527E+08
-.11425E+08
-.11319E+08
-.11301E+08
-.11308E+08
-.11452E+08
-.11368E+08
-.11494E+08
-.11522E+08
-.11180E+08
-.11224E+08
-.11137E+08
-.11181E+08
-.11168E+08
-.11147E+08
-.11147E+08
-.11071E+08
-.11168E+08
-.11125E+08
-.11192E+08
-.11097E+08
-.11514E+08
-.10807E+08
</weights>
</event>
<event>
      6  10001 -1.11453E+07  8.94427E-01 -1.00000E+00  4.14885E-01
      21    -1     0     0   502   501  0.000000000E+00  0.000000000E+00  1.637255673E-03  1.637255673E-03  0.000000000E+00  0.00000E+00  9.000E+00
       2    -1     0     0   501     0  0.000000000E+00  0.000000000E+00 -1.010255334E+03  1.010255334E+03  0.000000000E+00  0.00000E+00  9.000E+00
      23     2     1     2     0     0  9.322277147E-02  8.768490617E-01 -7.947505823E+02  7.947520528E+02  1.248906281E+00  0.00000E+00  9.000E+00
      11     1     3     3     0     0 -2.296336476E-01 -2.586946942E-01 -1.993005958E+02  1.993008960E+02  5.110000000E-04  0.00000E+00  9.000E+00
     -11     1     3     3     0     0  3.228564191E-01  1.135543756E+00 -5.954499865E+02  5.954511568E+02  5.110000000E-04  0.00000E+00  9.000E+00
       2     1     1     2   502     0 -9.322277147E-02 -8.768490617E-01 -2.155031148E+02  2.155049189E+02  0.000000000E+00  0.00000E+00  9.000E+00
#rwgt            1          17  -28271565.168298297                3     1238507           0
<weights>
-.11145E+08
-.11080E+08
-.11103E+08
-.13466E+08
-.88967E+07
-.91702E+07
-.13910E+08
-.11140E+08
-.11150E+08
-.11165E+08
-.11131E+08
-.10898E+08
-.11420E+08
-.11151E+08
-.11143E+08
-.10649E+08
-.11887E+08
-.11612E+08
-.10521E+08
-.10412E+08
-.11683E+08
-.11136E+08
-.11151E+08
-.10870E+08
-.11401E+08
-.11763E+08
-.10783E+08
-.10458E+08
-.11969E+08
-.11044E+08
-.11217E+08
-.11269E+08
-.11017E+08
-.11883E+08
-.10290E+08
-.11023E+08
-.11259E+08
-.11104E+08
-.11201E+08
-.11359E+08
-.10958E+08
-.11108E+08
-.11184E+08
-.11141E+08
-.11150E+08
</weights>
</event>
<event>
      7  10001  1.11453E+07  1.69313E+00 -1.00000E+00  3.87967E-01
      21    -1     0     0   502   501  0.000000000E+00  0.000000000E+00  1.545714180E-01  1.545714180E-01  0.000000000E+00  0.00000E+00  9.000E+00
       2    -1     0     0   501     0  0.000000000E+00  0.000000000E+00 -9.067263681E+01  9.067263681E+01  0.000000000E+00  0.00000E+00  9.000E+00
      23     2     1     2     0     0  2.220961856E-01  5.962999132E-01 -8.906552371E+01  8.908526995E+01  1.764343167E+00  0.00000E+00  9.000E+00
      11     1     3     3     0     0 -2.318247614E-01 -2.965091644E-01 -5.136845612E+00  5.150615838E+00  5.110000000E-04  0.00000E+00  9.000E+00
     -11     1     3     3     0     0  4.539209470E-01  8.928090776E-01 -8.392867810E+01  8.393465411E+01  5.110000000E-04  0.00000E+00  9.000E+00
       2     1     1     2   511     0 -6.107416193E-02  1.667171228E-01 -3.360767844E-01  3.800950635E-01  0.000000000E+00  0.00000E+00  9.000E+00
      21     1     1     2   502   511 -1.610220237E-01 -7.630170360E-01 -1.116464893E+00  1.361843216E+00  3.216718606E-07  0.00000E+00  9.000E+00
#rwgt            1          17   4384293.9855963727                3     1238931           0
<weights>
0.11145E+08
0.14423E+08
0.75233E+07
0.12480E+08
0.93886E+07
0.12614E+08
0.86239E+07
0.11192E+08
0.11099E+08
0.11079E+08
0.11131E+08
0.11219E+08
0.10982E+08
0.11118E+08
0.11125E+08
0.11085E+08
0.11202E+08
0.10967E+08
0.11415E+08
0.11447E+08
0.10945E+08
0.11172E+08
0.11147E+08
0.11306E+08
0.11017E+08
0.11015E+08
0.11214E+08
0.11433E+08
0.10760E+08
0.11190E+08
0.11127E+08
0.11174E+08
0.11118E+08
0.10954E+08
0.11391E+08
0.11129E+08
0.11156E+08
0.11056E+08
0.11244E+08
0.11051E+08
0.11221E+08
0.11241E+08
0.11043E+08
0.11175E+08
0.11111E+08
</weights>
</event>
<event>
      6  10001 -1.11453E+07  8.94427E-01 -1.00000E+00  5.97273E-01
      21    -1     0     0   502   501  0.000000000E+00  0.000000000E+00  2.789513034E-03  2.789513034E-03  0.000000000E+00  0.00000E+00  9.000E+00
       2    -1     0     0   501     0  0.000000000E+00  0.000000000E+00 -3.742624834E+02  3.742624834E+02  0.000000000E+00  0.00000E+00  9.000E+00
      23     2     1     2     0     0  4.510187763E-01 -3.695839741E-02 -3.227933533E+02  3.227969429E+02  1.453481548E+00  0.00000E+00  9.000E+00
      11     1     3     3     0     0  7.650862538E-02 -3.442458534E-01 -2.880134870E+02  2.880137029E+02  5.110000000E-04  0.00000E+00  9.000E+00
     -11     1     3     3     0     0  3.745101509E-01  3.072874560E-01 -3.477986633E+01  3.478324001E+01  5.110000000E-04  0.00000E+00  9.000E+00
       2     1     1     2   502     0 -4.510187763E-01  3.695839741E-02 -5.146634056E+01  5.146833001E+01  0.000000000E+00  0.00000E+00  9.000E+00
#rwgt            1          17  -15588187.290457932                3     1253020           0
<weights>
-.11145E+08
-.11509E+08
-.10638E+08
-.13988E+08
-.85238E+07
-.91702E+07
-.13910E+08
-.11128E+08
-.11162E+08
-.11168E+08
-.11156E+08
-.11020E+08
-.11290E+08
-.11160E+08
-.11157E+08
-.11326E+08
-.10874E+08
-.11403E+08
-.10761E+08
-.10710E+08
-.11431E+08
-.11105E+08
-.11165E+08
-.11090E+08
-.11156E+08
-.11267E+08
-.11065E+08
-.10836E+08
-.11463E+08
-.11078E+08
-.11174E+08
-.11022E+08
-.11265E+08
-.11421E+08
-.10800E+08
-.11113E+08
-.11174E+08
-.11158E+08
-.11136E+08
-.11225E+08
-.11073E+08
-.11142E+08
-.11148E+08
-.11128E+08
-.11163E+08
</weights>
</event>
<event>
      6  10001 -1.11453E+07  8.94427E-01 -1.00000E+00  6.64847E-01
       2    -1     0     0   501     0  0.000000000E+00  0.000000000E+00  5.660374795E+01  5.660374795E+01  0.000000000E+00  0.00000E+00  9.000E+00
      21    -1     0     0   502   501  0.000000000E+00  0.000000000E+00 -1.198175729E-02  1.198175729E-02  0.000000000E+00  0.00000E+00  9.000E+00
      23     2     1     2     0     0  2.951482337E-01  4.201384453E-01  4.090228650E+01  4.091785082E+01  1.004910606E+00  0.00000E+00  9.000E+00
      11     1     3     3     0     0  5.770077857E-01  1.983839579E-01  1.413649215E+01  1.414965388E+01  5.110000000E-04  0.00000E+00  9.000E+00
     -11     1     3     3     0     0 -2.818595520E-01  2.217544874E-01  2.676579435E+01  2.676819694E+01  5.110000000E-04  0.00000E+00  9.000E+00
       2     1     1     2   502     0 -2.951482337E-01 -4.201384453E-01  1.568947969E+01  1.569787890E+01  0.000000000E+00  0.00000E+00  9.000E+00
#rwgt            1          24  -8075615.1286746413                3     1255505           0
<weights>
-.11145E+08
-.12677E+08
-.94595E+07
-.15410E+08
-.75794E+07
-.91692E+07
-.13910E+08
-.11172E+08
-.11120E+08
-.10825E+08
-.10816E+08
-.10963E+08
-.11007E+08
-.10843E+08
-.10826E+08
-.11225E+08
-.11210E+08
-.11460E+08
-.11502E+08
-.11489E+08
-.11436E+08
-.11499E+08
-.11518E+08
-.11410E+08
-.11327E+08
-.11285E+08
-.11353E+08
-.11432E+08
-.11370E+08
-.11476E+08
-.11511E+08
-.11183E+08
-.11217E+08
-.11138E+08
-.11177E+08
-.11208E+08
-.11101E+08
-.11129E+08
-.11087E+08
-.11166E+08
-.11128E+08
-.11185E+08
-.11104E+08
-.11503E+08
-.10816E+08
</weights>
</event>
<event>
      6  10001  1.11453E+07  8.94427E-01 -1.00000E+00  5.90596E-01
       2    -1     0     0   501     0  0.000000000E+00  0.000000000E+00  3.115445395E-01  3.115445395E-01  0.000000000E+00  0.00000E+00  9.000E+00
      21    -1     0     0   502   501  0.000000000E+00  0.000000000E+00 -2.177468280E+01  2.177468280E+01  0.000000000E+00  0.00000E+00  9.000E+00
      23     2     1     2     0     0  3.788564045E-01 -4.568125824E-01 -9.078893525E-01  1.522412820E+00  1.068301366E+00  0.00000E+00  9.000E+00
      11     1     3     3     0     0  3.106640200E-02  1.348316121E-01 -8.187426672E-01  8.303520345E-01  5.110000000E-04  0.00000E+00  9.000E+00
     -11     1     3     3     0     0  3.477900025E-01 -5.916441945E-01 -8.914668532E-02  6.920607859E-01  5.110000000E-04  0.00000E+00  9.000E+00
       2     1     1     2   502     0 -3.788564045E-01  4.568125824E-01 -2.055524890E+01  2.056381451E+01  0.000000000E+00  0.00000E+00  9.000E+00
#rwgt            1          24   2784881.8192221355                3     1260259           0
<weights>
0.11141E+08
0.12376E+08
0.98036E+07
0.12768E+08
0.93545E+07
0.10735E+08
0.11580E+08
0.11263E+08
0.11017E+08
0.10703E+08
0.10768E+08
0.10898E+08
0.10985E+08
0.10748E+08
0.10765E+08
0.11237E+08
0.11208E+08
0.11505E+08
0.11567E+08
0.11564E+08
0.11476E+08
0.11530E+08
0.11624E+08
0.11276E+08
0.11516E+08
0.11435E+08
0.11012E+08
0.11480E+08
0.11332E+08
0.11471E+08
0.11553E+08
0.11137E+08
0.11268E+08
0.11146E+08
0.11155E+08
0.11327E+08
0.10980E+08
0.10864E+08
0.11278E+08
0.11149E+08
0.11136E+08
0.11172E+08
0.11109E+08
0.11577E+08
0.10735E+08
</weights>
</event>
<event>
      6  10001 -1.11453E+07  8.94427E-01 -1.00000E+00  1.67300E-01
       4    -1     0     0   501     0  0.000000000E+00  0.000000000E+00  1.990871822E+02  1.990871822E+02  0.000000000E+00  0.00000E+00  9.000E+00
      21    -1     0     0   502   501  0.000000000E+00  0.000000000E+00 -7.061966646E-03  7.061966646E-03  0.000000000E+00  0.00000E+00  9.000E+00
      23     2     1     2     0     0  2.864316512E-01 -8.670818852E-02  1.880124118E+02  1.880224904E+02  1.923628266E+00  0.00000E+00  9.000E+00
      11     1     3     3     0     0  1.204225550E-01  2.425215885E-01  3.770694603E+00  3.780404259E+00  5.110000000E-04  0.00000E+00  9.000E+00
     -11     1     3     3     0     0  1.660090962E-01 -3.292297770E-01  1.842417172E+02  1.842420862E+02  5.110000000E-04  0.00000E+00  9.000E+00
       4     1     1     2   502     0 -2.864316512E-01  8.670818852E-02  1.106770842E+01  1.107175375E+01  0.000000000E+00  0.00000E+00  9.000E+00
#rwgt            1          28  -1430419.8787339288                3     1412363           0
<weights>
-.11145E+08
-.11870E+08
-.10182E+08
-.14431E+08
-.81587E+07
-.91677E+07
-.13910E+08
-.11179E+08
-.11111E+08
-.10837E+08
-.10834E+08
-.10967E+08
-.11018E+08
-.10857E+08
-.10843E+08
-.11224E+08
-.11200E+08
-.11443E+08
-.11478E+08
-.11467E+08
-.11421E+08
-.11477E+08
-.11500E+08
-.11378E+08
-.11328E+08
-.11283E+08
-.11297E+08
-.11414E+08
-.11354E+08
-.11453E+08
-.11490E+08
-.11177E+08
-.11216E+08
-.11139E+08
-.11174E+08
-.11215E+08
-.11094E+08
-.11108E+08
-.11108E+08
-.11160E+08
-.11133E+08
-.11181E+08
-.11108E+08
-.11485E+08
-.10832E+08
</weights>
</event>
<event>
      7  10001  1.11453E+07  1.35608E+00 -1.00000E+00  4.57566E-01
      21    -1     0     0   511   501  0.000000000E+00  0.000000000E+00  1.482427997E+01  1.482427997E+01  0.000000000E+00  0.00000E+00  9.000E+00
       2    -1     0     0   501     0  0.000000000E+00  0.000000000E+00 -1.121248897E+02  1.121248897E+02  0.000000000E+00  0.00000E+00  9.000E+00
      23     2     1     2     0     0 -1.078474672E-01  2.121642096E+00 -1.023928907E+02  1.024902245E+02  3.927984720E+00  0.00000E+00  9.000E+00
      11     1     3     3     0     0 -1.115966130E+00  1.343956866E+00 -9.240462979E+01  9.242114048E+01  5.110000000E-04  0.00000E+00  9.000E+00
     -11     1     3     3     0     0  1.008118663E+00  7.776852302E-01 -9.988260909E+00  1.006908406E+01  5.110000000E-04  0.00000E+00  9.000E+00
       2     1     1     2   502     0  1.550142481E-02 -3.474575291E+00 -9.338824899E+00  9.964264360E+00  0.000000000E+00  0.00000E+00  9.000E+00
      21     1     1     2   511   502  9.234604242E-02  1.352933194E+00  1.443110584E+01  1.449468081E+01  3.371747881E-07  0.00000E+00  9.000E+00
#rwgt            1          17   2773550.2181104319                3     1413526           0
<weights>
0.11145E+08
0.12607E+08
0.94954E+07
0.12213E+08
0.97954E+07
0.11346E+08
0.10570E+08
0.11160E+08
0.11130E+08
0.11135E+08
0.11159E+08
0.11181E+08
0.11077E+08
0.11155E+08
0.11157E+08
0.11177E+08
0.11063E+08
0.11053E+08
0.11223E+08
0.11236E+08
0.11043E+08
0.11131E+08
0.11125E+08
0.11260E+08
0.11007E+08
0.11038E+08
0.11197E+08
0.11270E+08
0.10918E+08
0.11146E+08
0.11115E+08
0.11134E+08
0.11149E+08
0.11049E+08
0.11262E+08
0.11140E+08
0.11145E+08
0.11119E+08
0.11177E+08
0.11089E+08
0.11189E+08
0.11208E+08
0.11078E+08
0.11135E+08
0.11150E+08
</weights>
</event>
<event>
      7  10001  1.11453E+07  9.34964E+00 -1.00000E+00  1.98645E-01
      21    -1     0     0   502   501  0.000000000E+00  0.000000000E+00  3.174931413E+01  3.174931413E+01  0.000000000E+00  0.00000E+00  9.000E+00
      21    -1     0     0   501   511  0.000000000E+00  0.000000000E+00 -2.857093655E+01  2.857093655E+01  0.000000000E+00  0.00000E+00  9.000E+00
      23     2     1     2     0     0 -7.290541390E-01 -1.259053183E+00  5.187051751E-01  2.056474855E+00  1.357681448E+00  0.00000E+00  9.000E+00
      11     1     3     3     0     0 -1.011547459E+00 -9.447186969E-01  7.504847363E-01  1.574467935E+00  5.110000000E-04  0.00000E+00  9.000E+00
     -11     1     3     3     0     0  2.824933197E-01 -3.143344856E-01 -2.317795612E-01  4.820069197E-01  5.110000000E-04  0.00000E+00  9.000E+00
       4     1     1     2   502     0  6.940535054E+00 -5.729025171E+00  2.897310772E+01  3.033865071E+01  0.000000000E+00  0.00000E+00  9.000E+00
      -4     1     1     2     0   511 -6.211480915E+00  6.988078354E+00 -2.631343531E+01  2.792512510E+01  0.000000000E+00  0.00000E+00  9.000E+00
#rwgt            1          19   1463936.7930082344                3     1436493           0
<weights>
0.11145E+08
0.11950E+08
0.10263E+08
0.12603E+08
0.95087E+07
0.10486E+08
0.11890E+08
0.11200E+08
0.11086E+08
0.10787E+08
0.10767E+08
0.10936E+08
0.10997E+08
0.10801E+08
0.10780E+08
0.11237E+08
0.11231E+08
0.11520E+08
0.11524E+08
0.11521E+08
0.11490E+08
0.11555E+08
0.11570E+08
0.11381E+08
0.11386E+08
0.11359E+08
0.11132E+08
0.11500E+08
0.11384E+08
0.11534E+08
0.11567E+08
0.11198E+08
0.11218E+08
0.11128E+08
0.11191E+08
0.11243E+08
0.11066E+08
0.11162E+08
0.11041E+08
0.11179E+08
0.11118E+08
0.11181E+08
0.11108E+08
0.11554E+08
0.10771E+08
</weights>
</event>
<event>
      7  10001  1.11453E+07  8.94427E-01 -1.00000E+00  6.07649E-01
       2    -1     0     0   501     0  0.000000000E+00  0.000000000E+00  1.076011396E+01  1.076011396E+01  0.000000000E+00  0.00000E+00  9.000E+00
      21    -1     0     0   502   501  0.000000000E+00  0.000000000E+00 -1.394185310E-01  1.394185310E-01  0.000000000E+00  0.00000E+00  9.000E+00
      23     2     1     2     0     0  1.304850319E-01  5.396254335E-01  6.353687205E+00  6.480077254E+00  1.146227797E+00  0.00000E+00  9.000E+00
      11     1     3     3     0     0 -3.498349503E-01 -3.427946956E-02  3.874097086E+00  3.890011320E+00  5.110000000E-04  0.00000E+00  9.000E+00
     -11     1     3     3     0     0  4.803199823E-01  5.739049030E-01  2.479590119E+00  2.590065934E+00  5.110000000E-04  0.00000E+00  9.000E+00
       2     1     1     2   511     0 -3.541467767E-02 -5.645710511E-01  4.282721267E+00  4.319918532E+00  0.000000000E+00  0.00000E+00  9.000E+00
      21     1     1     2   502   511 -9.507035426E-02  2.494561762E-02 -1.571304264E-02  9.953670582E-02  7.679882693E-09  0.00000E+00  9.000E+00
#rwgt            2         248   38763063.306391254                3     1439462           0
<weights>
0.11145E+08
0.11709E+08
0.10295E+08
0.14230E+08
0.82486E+07
0.91702E+07
0.13910E+08
0.11180E+08
0.11109E+08
0.10826E+08
0.10819E+08
0.10962E+08
0.11010E+08
0.10845E+08
0.10829E+08
0.11227E+08
0.11206E+08
0.11459E+08
0.11491E+08
0.11482E+08
0.11435E+08
0.11495E+08
0.11515E+08
0.11388E+08
0.11334E+08
0.11290E+08
0.11281E+08
0.11431E+08
0.11365E+08
0.11472E+08
0.11508E+08
0.11182E+08
0.11216E+08
0.11138E+08
0.11177E+08
0.11215E+08
0.11094E+08
0.11125E+08
0.11091E+08
0.11165E+08
0.11129E+08
0.11183E+08
0.11106E+08
0.11501E+08
0.10818E+08
</weights>
</event>
<event>
      6  10001 -1.11453E+07  8.94427E-01 -1.00000E+00  4.35442E-01
      21    -1     0     0   502   501  0.000000000E+00  0.000000000E+00  9.785497580E-03  9.785497580E-03  0.000000000E+00  0.00000E+00  9.000E+00
       4    -1     0     0   501     0  0.000000000E+00  0.000000000E+00 -1.717558442E+02  1.717558442E+02  0.000000000E+00  0.00000E+00  9.000E+00
      23     2     1     2     0     0 -3.315594442E-01  7.379524754E-01 -1.426051007E+02  1.426134439E+02  1.313438175E+00  0.00000E+00  9.000E+00
      11     1     3     3     0     0 -1.198807640E-01  1.094268064E+00 -9.049645859E+01  9.050315360E+01  5.110000000E-04  0.00000E+00  9.000E+00
     -11     1     3     3     0     0 -2.116786802E-01 -3.563155889E-01 -5.210864214E+01  5.211029029E+01  5.110000000E-04  0.00000E+00  9.000E+00
       4     1     1     2   502     0  3.315594442E-01 -7.379524754E-01 -2.914095794E+01  2.915218577E+01  0.000000000E+00  0.00000E+00  9.000E+00
#rwgt            1          19  -1237611.3636094141                3     1441518           0
<weights>
-.11145E+08
-.12691E+08
-.94069E+07
-.15424E+08
-.75373E+07
-.91702E+07
-.13910E+08
-.11025E+08
-.11261E+08
-.11524E+08
-.11389E+08
-.11128E+08
-.11519E+08
-.11493E+08
-.11458E+08
-.11091E+08
-.11034E+08
-.10850E+08
-.10749E+08
-.10751E+08
-.10874E+08
-.10822E+08
-.10713E+08
-.11108E+08
-.10726E+08
-.10855E+08
-.11256E+08
-.10900E+08
-.10931E+08
-.10865E+08
-.10798E+08
-.11181E+08
-.11003E+08
-.11094E+08
-.11188E+08
-.11078E+08
-.11197E+08
-.11294E+08
-.11040E+08
-.10951E+08
-.11328E+08
-.11032E+08
-.11266E+08
-.10792E+08
-.11464E+08
</weights>
</event>
<event>
      6  10001 -1.11453E+07  8.94427E-01 -1.00000E+00  4.58212E-01
      21    -1     0     0   502   501  0.000000000E+00  0.000000000E+00  1.667361184E-03  1.667361184E-03  0.000000000E+00  0.00000E+00  9.000E+00
       2    -1     0     0   501     0  0.000000000E+00  0.000000000E+00 -7.450016327E+02  7.450016327E+02  0.000000000E+00  0.00000E+00  9.000E+00
      23     2     1     2     0     0  2.831668014E-01  8.605995445E-02 -7.277476237E+02  7.277484201E+02  1.035179593E+00  0.00000E+00  9.000E+00
      11     1     3     3     0     0  1.656916863E-01  2.047758515E-02 -1.778340658E+01  1.778419025E+01  5.110000000E-04  0.00000E+00  9.000E+00
     -11     1     3     3     0     0  1.174751151E-01  6.558236929E-02 -7.099642171E+02  7.099642299E+02  5.110000000E-04  0.00000E+00  9.000E+00
       2     1     1     2   502     0 -2.831668014E-01 -8.605995445E-02 -1.725234164E+01  1.725487994E+01  0.000000000E+00  0.00000E+00  9.000E+00
#rwgt            1          17  -64602106.118712984                3     1442032           0
<weights>
-.11145E+08
-.11037E+08
-.11165E+08
-.13415E+08
-.89463E+07
-.91702E+07
-.13910E+08
-.11135E+08
-.11156E+08
-.11163E+08
-.11140E+08
-.10926E+08
-.11390E+08
-.11153E+08
-.11146E+08
-.11025E+08
-.11310E+08
-.11576E+08
-.10561E+08
-.10468E+08
-.11634E+08
-.11119E+08
-.11168E+08
-.10943E+08
-.11320E+08
-.11552E+08
-.10901E+08
-.10574E+08
-.11812E+08
-.11049E+08
-.11210E+08
-.11111E+08
-.11176E+08
-.11724E+08
-.10460E+08
-.11058E+08
-.11226E+08
-.11123E+08
-.11179E+08
-.11315E+08
-.10996E+08
-.11119E+08
-.11173E+08
-.11138E+08
-.11153E+08
</weights>
</event>
<event>
      6  10001 -1.11453E+07  8.94427E-01 -1.00000E+00  2.63555E-01
      21    -1     0     0   502   501  0.000000000E+00  0.000000000E+00  7.954111935E-03  7.954111935E-03  0.000000000E+00  0.00000E+00  9.000E+00
       2    -1     0     0   501     0  0.000000000E+00  0.000000000E+00 -5.957885049E+02  5.957885049E+02  0.000000000E+00  0.00000E+00  9.000E+00
      23     2     1     2     0     0 -2.955542566E-01 -1.181947503E-02 -5.927796814E+02  5.927810471E+02  1.237581286E+00  0.00000E+00  9.000E+00
      11     1     3     3     0     0  2.075924193E-01  2.186816800E-01 -4.721377013E+02  4.721377976E+02  5.110000000E-04  0.00000E+00  9.000E+00
     -11     1     3     3     0     0 -5.031466759E-01 -2.305011550E-01 -1.206419801E+02  1.206432495E+02  5.110000000E-04  0.00000E+00  9.000E+00
       2     1     1     2   502     0  2.955542566E-01  1.181947503E-02 -3.000869327E+00  3.015411868E+00  0.000000000E+00  0.00000E+00  9.000E+00
#rwgt            1          17  -285387681.78147101                3     1442775           0
<weights>
-.11145E+08
-.10778E+08
-.11542E+08
-.13099E+08
-.92479E+07
-.91702E+07
-.13910E+08
-.11132E+08
-.11158E+08
-.11163E+08
-.11145E+08
-.10953E+08
-.11361E+08
-.11154E+08
-.11149E+08
-.11182E+08
-.11081E+08
-.11530E+08
-.10614E+08
-.10535E+08
-.11578E+08
-.11113E+08
-.11172E+08
-.10993E+08
-.11263E+08
-.11440E+08
-.10965E+08
-.10659E+08
-.11699E+08
-.11057E+08
-.11201E+08
-.11054E+08
-.11234E+08
-.11619E+08
-.10575E+08
-.11078E+08
-.11207E+08
-.11135E+08
-.11165E+08
-.11285E+08
-.11022E+08
-.11126E+08
-.11165E+08
-.11136E+08
-.11155E+08
</weights>
</event>
<event>
      7  10001  1.11453E+07  2.36041E+01 -1.00000E+00  1.60509E-01
       4    -1     0     0   501     0  0.000000000E+00  0.000000000E+00  1.189782383E+01  1.189782383E+01  0.000000000E+00  0.00000E+00  9.000E+00
      21    -1     0     0   502   501  0.000000000E+00  0.000000000E+00 -1.484582591E+01  1.484582591E+01  0.000000000E+00  0.00000E+00  9.000E+00
      23     2     1     2     0     0 -3.789867365E-01 -3.665583136E-01 -1.426711949E+00  1.849669133E+00  1.052507945E+00  0.00000E+00  9.000E+00
      11     1     3     3     0     0 -4.086336786E-01  1.023386158E-01 -8.724726197E-02  4.301941671E-01  5.110000000E-04  0.00000E+00  9.000E+00
     -11     1     3     3     0     0  2.964694217E-02 -4.688969294E-01 -1.339464687E+00  1.419474966E+00  5.110000000E-04  0.00000E+00  9.000E+00
       4     1     1     2   511     0  7.262338442E+00  2.691136197E+00  9.147807883E+00  1.198608204E+01  0.000000000E+00  0.00000E+00  9.000E+00
      21     1     1     2   502   511 -6.883351706E+00 -2.324577884E+00 -1.066909801E+01  1.290789857E+01  1.180111758E-06  0.00000E+00  9.000E+00
#rwgt            2         308   27623.736328110077                3     1446834           0
<weights>
0.11145E+08
0.10547E+08
0.11571E+08
0.12819E+08
0.92710E+07
0.91702E+07
0.13910E+08
0.11214E+08
0.11075E+08
0.10911E+08
0.10949E+08
0.10991E+08
0.11089E+08
0.10946E+08
0.10953E+08
0.11207E+08
0.11150E+08
0.11335E+08
0.11343E+08
0.11340E+08
0.11321E+08
0.11341E+08
0.11383E+08
0.11210E+08
0.11335E+08
0.11287E+08
0.11070E+08
0.11307E+08
0.11239E+08
0.11304E+08
0.11354E+08
0.11137E+08
0.11215E+08
0.11147E+08
0.11153E+08
0.11258E+08
0.11046E+08
0.10961E+08
0.11265E+08
0.11123E+08
0.11166E+08
0.11157E+08
0.11134E+08
0.11371E+08
0.10931E+08
</weights>
</event>
<event>
      7  10001  1.11453E+07  3.38052E+00 -1.00000E+00  2.78116E-01
      -3    -1     0     0     0   501  0.000000000E+00  0.000000000E+00  4.841611552E-01  4.841611552E-01  0.000000000E+00  0.00000E+00  9.000E+00
       2    -1     0     0   501     0  0.000000000E+00  0.000000000E+00 -7.323974253E+01  7.323974253E+01  0.000000000E+00  0.00000E+00  9.000E+00
      23     2     1     2     0     0  8.639474173E-01  2.955444138E-01 -1.523363986E+00  2.055088529E+00  1.033924267E+00  0.00000E+00  9.000E+00
      11     1     3     3     0     0  6.480336657E-01 -3.092980320E-01 -6.327655501E-01  9.570817138E-01  5.110000000E-04  0.00000E+00  9.000E+00
     -11     1     3     3     0     0  2.159137516E-01  6.048424458E-01 -8.905984355E-01  1.098006815E+00  5.110000000E-04  0.00000E+00  9.000E+00
       2     1     1     2   502     0 -1.959412488E+00  2.902557832E+00 -5.367430368E+01  5.378842826E+01  0.000000000E+00  0.00000E+00  9.000E+00
      -3     1     1     2     0   502  1.095465071E+00 -3.198102246E+00 -1.755791371E+01  1.788038690E+01  0.000000000E+00  0.00000E+00  9.000E+00
#rwgt            2          76   14846.879707600716                3     1449365           0
<weights>
0.11145E+08
0.10937E+08
0.11229E+08
0.13293E+08
0.89972E+07
0.91702E+07
0.13910E+08
0.11168E+08
0.11123E+08
0.11123E+08
0.11150E+08
0.11161E+08
0.11092E+08
0.11148E+08
0.11150E+08
0.11143E+08
0.11115E+08
0.11068E+08
0.11218E+08
0.11228E+08
0.11062E+08
0.11137E+08
0.11129E+08
0.11234E+08
0.11045E+08
0.11076E+08
0.11175E+08
0.11254E+08
0.10947E+08
0.11143E+08
0.11121E+08
0.11135E+08
0.11150E+08
0.11076E+08
0.11234E+08
0.11130E+08
0.11157E+08
0.11085E+08
0.11217E+08
0.11087E+08
0.11191E+08
0.11200E+08
0.11087E+08
0.11144E+08
0.11141E+08
</weights>
</event>
<event>
      7  10001  1.11453E+07  4.91297E+00 -1.00000E+00  2.42201E-01
      21    -1     0     0   502   501  0.000000000E+00  0.000000000E+00  1.385810732E+00  1.385810732E+00  0.000000000E+00  0.00000E+00  9.000E+00
       2    -1     0     0   501     0  0.000000000E+00  0.000000000E+00 -1.022816669E+01  1.022816669E+01  0.000000000E+00  0.00000E+00  9.000E+00
      23     2     1     2     0     0 -8.273365441E-01 -4.829665038E-01 -8.614730745E+00  8.991918961E+00  2.392337431E+00  0.00000E+00  9.000E+00
      11     1     3     3     0     0 -1.480306390E+00 -9.491841661E-01 -6.363012821E+00  6.601529369E+00  5.110000000E-04  0.00000E+00  9.000E+00
     -11     1     3     3     0     0  6.529698459E-01  4.662176623E-01 -2.251717924E+00  2.390389591E+00  5.110000000E-04  0.00000E+00  9.000E+00
       2     1     1     2   511     0 -1.320787567E-01  7.168167110E-01 -1.089838746E+00  1.311113834E+00  0.000000000E+00  0.00000E+00  9.000E+00
      21     1     1     2   502   511  9.594153008E-01 -2.338502072E-01  8.622135330E-01  1.310944627E+00  1.734561730E-07  0.00000E+00  9.000E+00
#rwgt            2         189   1728515.6935554703                3     1454841           0
<weights>
0.11145E+08
0.11200E+08
0.10856E+08
0.13612E+08
0.86987E+07
0.91702E+07
0.13910E+08
0.11171E+08
0.11115E+08
0.10913E+08
0.10933E+08
0.11047E+08
0.11004E+08
0.10937E+08
0.10938E+08
0.11113E+08
0.11300E+08
0.11293E+08
0.11448E+08
0.11449E+08
0.11277E+08
0.11369E+08
0.11389E+08
0.11277E+08
0.11298E+08
0.11301E+08
0.11072E+08
0.11432E+08
0.11113E+08
0.11351E+08
0.11356E+08
0.11149E+08
0.11209E+08
0.11108E+08
0.11217E+08
0.11095E+08
0.11209E+08
0.11017E+08
0.11198E+08
0.11118E+08
0.11166E+08
0.11210E+08
0.11077E+08
0.11381E+08
0.10925E+08
</weights>
</event>
<event>
      6  10001  1.11453E+07  8.94427E-01 -1.00000E+00  5.76106E-01
      -4    -1     0     0     0   502  0.000000000E+00  0.000000000E+00  6.393265515E-01  6.393265515E-01  0.000000000E+00  0.00000E+00  9.000E+00
      21    -1     0     0   502   501  0.000000000E+00  0.000000000E+00 -2.152863679E+00  2.152863679E+00  0.000000000E+00  0.00000E+00  9.000E+00
      23     2     1     2     0     0  1.491756052E-01 -2.653713589E-01 -3.410771522E-01  1.580853071E+00  1.513303502E+00  0.00000E+00  9.000E+00
      11     1     3     3     0     0  6.756257567E-01 -2.926038599E-01 -6.393903952E-01  9.751448716E-01  5.110000000E-04  0.00000E+00  9.000E+00
     -11     1     3     3     0     0 -5.264501514E-01  2.723250106E-02  2.983132431E-01  6.057081997E-01  5.110000000E-04  0.00000E+00  9.000E+00
      -4     1     1     2     0   501 -1.491756052E-01  2.653713589E-01 -1.172459976E+00  1.211337160E+00  0.000000000E+00  0.00000E+00  9.000E+00
#rwgt            1           3   210362.67991548183                3     1455282           0
<weights>
0.11145E+08
0.20281E+08
0.31074E+07
0.87274E+07
0.11261E+08
0.19161E+08
-.14273E+07
0.11201E+08
0.11077E+08
0.10199E+08
0.10024E+08
0.10680E+08
0.10608E+08
0.10164E+08
0.10057E+08
0.11361E+08
0.11545E+08
0.12275E+08
0.12303E+08
0.12299E+08
0.12181E+08
0.12420E+08
0.12380E+08
0.12012E+08
0.11701E+08
0.11714E+08
0.11329E+08
0.12275E+08
0.11947E+08
0.12430E+08
0.12436E+08
0.11398E+08
0.11278E+08
0.11081E+08
0.11310E+08
0.11253E+08
0.11085E+08
0.11713E+08
0.10353E+08
0.11384E+08
0.10939E+08
0.11278E+08
0.11006E+08
0.12335E+08
0.10077E+08
</weights>
</event>
<event>
      6  10001 -1.11453E+07  8.94427E-01 -1.00000E+00  6.07532E-01
      -1    -1     0     0     0   502  0.000000000E+00  0.000000000E+00  1.297381219E-02  1.297381219E-02  0.000000000E+00  0.00000E+00  9.000E+00
       1    -1     0     0   501     0  0.000000000E+00  0.000000000E+00 -2.035506037E+02  2.035506037E+02  0.000000000E+00  0.00000E+00  9.000E+00
      23     2     1     2     0     0  2.507310106E-01 -6.470805830E-01 -1.384731463E+02  1.384953933E+02  2.383301169E+00  0.00000E+00  9.000E+00
      11     1     3     3     0     0  8.882328093E-01 -7.816735421E-01 -1.257566120E+02  1.257621781E+02  5.110000000E-04  0.00000E+00  9.000E+00
     -11     1     3     3     0     0 -6.375017987E-01  1.345929591E-01 -1.271653427E+01  1.273321515E+01  5.110000000E-04  0.00000E+00  9.000E+00
      21     1     1     2   501   502 -2.507310106E-01  6.470805830E-01 -6.506448358E+01  6.506818426E+01  0.000000000E+00  0.00000E+00  9.000E+00
#rwgt            1          10  -220607.28306132325                3     1475148           0
<weights>
-.11145E+08
-.12479E+08
-.96231E+07
-.15166E+08
-.77105E+07
-.91702E+07
-.13910E+08
-.11223E+08
-.11070E+08
-.11177E+08
-.11230E+08
-.11363E+08
-.10900E+08
-.11196E+08
-.11203E+08
-.10318E+08
-.12136E+08
-.10527E+08
-.11754E+08
-.11846E+08
-.10450E+08
-.11148E+08
-.11008E+08
-.11387E+08
-.10805E+08
-.10795E+08
-.11325E+08
-.11530E+08
-.10483E+08
-.11186E+08
-.11027E+08
-.11088E+08
-.11184E+08
-.10538E+08
-.11778E+08
-.11134E+08
-.11145E+08
-.11169E+08
-.11129E+08
-.11253E+08
-.11040E+08
-.11213E+08
-.11071E+08
-.11083E+08
-.11203E+08
</weights>
</event>
<event>
      7  10001  1.11453E+07  2.77449E+00 -1.00000E+00  3.02383E-01
      -4    -1     0     0     0   502  0.000000000E+00  0.000000000E+00  1.615387900E-01  1.615387900E-01  0.000000000E+00  0.00000E+00  9.000E+00
      21    -1     0     0   501   511  0.000000000E+00  0.000000000E+00 -2.206084364E+02  2.206084364E+02  0.000000000E+00  0.00000E+00  9.000E+00
      23     2     1     2     0     0 -1.952162709E-01 -3.868687353E-01 -1.049662970E+01  1.064967104E+01  1.745990094E+00  0.00000E+00  9.000E+00
      11     1     3     3     0     0  3.887383014E-02 -1.072487701E+00 -6.067296224E+00  6.161479106E+00  5.110000000E-04  0.00000E+00  9.000E+00
     -11     1     3     3     0     0 -2.340901011E-01  6.856189656E-01 -4.429333477E+00  4.488191936E+00  5.110000000E-04  0.00000E+00  9.000E+00
      21     1     1     2   501   502  2.834619308E+00 -4.683316480E-01 -2.763867829E+01  2.778760405E+01  4.768371582E-07  0.00000E+00  9.000E+00
      -4     1     1     2     0   511 -2.639403038E+00  8.552003833E-01 -1.823115897E+02  1.823327001E+02  0.000000000E+00  0.00000E+00  9.000E+00
#rwgt            1           4   138202.56801720968                3     1476002           0
<weights>
0.11145E+08
0.12596E+08
0.96629E+07
0.12705E+08
0.92221E+07
0.10824E+08
0.11371E+08
0.11264E+08
0.11027E+08
0.10809E+08
0.10905E+08
0.10925E+08
0.11088E+08
0.10878E+08
0.10903E+08
0.11203E+08
0.11166E+08
0.11369E+08
0.11409E+08
0.11403E+08
0.11357E+08
0.11378E+08
0.11450E+08
0.11199E+08
0.11425E+08
0.11377E+08
0.11033E+08
0.11355E+08
0.11221E+08
0.11309E+08
0.11394E+08
0.11099E+08
0.11268E+08
0.11171E+08
0.11126E+08
0.11340E+08
0.10972E+08
0.10760E+08
0.11481E+08
0.11101E+08
0.11187E+08
0.11141E+08
0.11151E+08
0.11438E+08
0.10862E+08
</weights>
</event>
<event>
      6  10001 -1.11453E+07  8.94427E-01 -1.00000E+00  4.87958E-01
      21    -1     0     0   502   501  0.000000000E+00  0.000000000E+00  4.795592277E-03  4.795592277E-03  0.000000000E+00  0.00000E+00  9.000E+00
       1    -1     0     0   501     0  0.000000000E+00  0.000000000E+00 -5.837990834E+02  5.837990834E+02  0.000000000E+00  0.00000E+00  9.000E+00
      23     2     1     2     0     0 -5.626943530E-01 -5.169647932E-01 -3.544883777E+02  3.544966958E+02  2.305101660E+00  0.00000E+00  9.000E+00
      11     1     3     3     0     0 -3.992869128E-01 -1.396318564E+00 -1.722063252E+02  1.722124490E+02  5.110000000E-04  0.00000E+00  9.000E+00
     -11     1     3     3     0     0 -1.634074402E-01  8.793537712E-01 -1.822820525E+02  1.822842468E+02  5.110000000E-04  0.00000E+00  9.000E+00
       1     1     1     2   502     0  5.626943530E-01  5.169647932E-01 -2.293059100E+02  2.293071832E+02  0.000000000E+00  0.00000E+00  9.000E+00
#rwgt            1          16  -1456399.1572971335                3     1478330           0
<weights>
-.11145E+08
-.11195E+08
-.10974E+08
-.13607E+08
-.87927E+07
-.91702E+07
-.13910E+08
-.11347E+08
-.10957E+08
-.11033E+08
-.11387E+08
-.12311E+08
-.99905E+07
-.11165E+08
-.11176E+08
-.10355E+08
-.11988E+08
-.98006E+07
-.12931E+08
-.13273E+08
-.96015E+07
-.11231E+08
-.10978E+08
-.11746E+08
-.10472E+08
-.10103E+08
-.11796E+08
-.12860E+08
-.92663E+07
-.11403E+08
-.10916E+08
-.10910E+08
-.11382E+08
-.97899E+07
-.12739E+08
-.11144E+08
-.11147E+08
-.11121E+08
-.11195E+08
-.11395E+08
-.10921E+08
-.11135E+08
-.11155E+08
-.11112E+08
-.11179E+08
</weights>
</event>
<event>
      6  10001 -1.11453E+07  8.94427E-01 -1.00000E+00  5.80234E-01
      21    -1     0     0   502   501  0.000000000E+00  0.000000000E+00  1.661545789E-02  1.661545789E-02  0.000000000E+00  0.00000E+00  9.000E+00
       2    -1     0     0   501     0  0.000000000E+00  0.000000000E+00 -9.244048015E+01  9.244048015E+01  0.000000000E+00  0.00000E+00  9.000E+00
      23     2     1     2     0     0  3.796534033E-01 -1.347506889E-01 -8.756594247E+01  8.758249790E+01  1.654498131E+00  0.00000E+00  9.000E+00
      11     1     3     3     0     0  6.435374750E-01 -4.432353402E-01 -1.989739761E+01  1.991273537E+01  5.110000000E-04  0.00000E+00  9.000E+00
     -11     1     3     3     0     0 -2.638840717E-01  3.084846513E-01 -6.766854485E+01  6.766976253E+01  5.110000000E-04  0.00000E+00  9.000E+00
       2     1     1     2   502     0 -3.796534033E-01  1.347506889E-01 -4.857922226E+00  4.874597708E+00  0.000000000E+00  0.00000E+00  9.000E+00
#rwgt            1          17  -10775925.957323875                3     1480200           0
<weights>
-.11145E+08
-.12417E+08
-.97415E+07
-.15091E+08
-.78054E+07
-.91702E+07
-.13910E+08
-.11156E+08
-.11134E+08
-.11145E+08
-.11163E+08
-.11160E+08
-.11113E+08
-.11163E+08
-.11164E+08
-.11175E+08
-.11065E+08
-.11083E+08
-.11167E+08
-.11173E+08
-.11078E+08
-.11122E+08
-.11118E+08
-.11231E+08
-.11026E+08
-.11067E+08
-.11178E+08
-.11215E+08
-.10977E+08
-.11130E+08
-.11113E+08
-.11126E+08
-.11155E+08
-.11092E+08
-.11209E+08
-.11134E+08
-.11151E+08
-.11116E+08
-.11185E+08
-.11098E+08
-.11182E+08
-.11194E+08
-.11093E+08
-.11128E+08
-.11158E+08
</weights>
</event>
<event>
      6  10001 -1.11453E+07  8.94427E-01 -1.00000E+00  5.77405E-01
      21    -1     0     0   502   501  0.000000000E+00  0.000000000E+00  2.472065197E-02  2.472065197E-02  0.000000000E+00  0.00000E+00  9.000E+00
      -5    -1     0     0     0   502  0.000000000E+00  0.000000000E+00 -3.440415411E+01  3.440415411E+01  0.000000000E+00  0.00000E+00  9.000E+00
      23     2     1     2     0     0  3.088909035E-01 -1.730072658E-01 -3.192192759E+01  3.194599736E+01  1.188251290E+00  0.00000E+00  9.000E+00
      11     1     3     3     0     0 -1.909525737E-01 -4.544638839E-02 -2.623162178E+01  2.623235616E+01  5.110000000E-04  0.00000E+00  9.000E+00
     -11     1     3     3     0     0  4.998434773E-01 -1.275608774E-01 -5.690305814E+00  5.713641203E+00  5.110000000E-04  0.00000E+00  9.000E+00
      -5     1     1     2     0   501 -3.088909035E-01  1.730072658E-01 -2.457505870E+00  2.482877404E+00  0.000000000E+00  0.00000E+00  9.000E+00
#rwgt            1          11  -1102821.0954375209                3     1481649           0
<weights>
-.11145E+08
-.13735E+08
-.84372E+07
-.16693E+08
-.67603E+07
-.91702E+07
-.13910E+08
-.11217E+08
-.11074E+08
-.10977E+08
-.11045E+08
-.11000E+08
-.11165E+08
-.11036E+08
-.11050E+08
-.11182E+08
-.11111E+08
-.11231E+08
-.11226E+08
-.11220E+08
-.11229E+08
-.11227E+08
-.11252E+08
-.11146E+08
-.11270E+08
-.11246E+08
-.11078E+08
-.11215E+08
-.11147E+08
-.11179E+08
-.11233E+08
-.11102E+08
-.11217E+08
-.11160E+08
-.11130E+08
-.11276E+08
-.11027E+08
-.10855E+08
-.11439E+08
-.11078E+08
-.11208E+08
-.11128E+08
-.11164E+08
-.11270E+08
-.11017E+08
</weights>
</event>
<event>
      6  10001 -1.11453E+07  8.94427E-01 -1.00000E+00  1.74053E-01
      21    -1     0     0   502   501  0.000000000E+00  0.000000000E+00  3.181861616E+01  3.181861616E+01  0.000000000E+00  0.00000E+00  9.000E+00
      -4    -1     0     0     0   502  0.000000000E+00  0.000000000E+00 -2.302519465E-02  2.302519465E-02  0.000000000E+00  0.00000E+00  9.000E+00
      23     2     1     2     0     0  8.755522782E-02  3.424640328E-01  2.837422314E+01  2.840206212E+01  1.206501637E+00  0.00000E+00  9.000E+00
      11     1     3     3     0     0 -3.209925079E-01 -2.444583266E-01  1.733823105E+01  1.734292514E+01  5.110000000E-04  0.00000E+00  9.000E+00
     -11     1     3     3     0     0  4.085477357E-01  5.869223594E-01  1.103599209E+01  1.105913698E+01  5.110000000E-04  0.00000E+00  9.000E+00
      -4     1     1     2     0   501 -8.755522782E-02 -3.424640328E-01  3.421367820E+00  3.439579232E+00  0.000000000E+00  0.00000E+00  9.000E+00
#rwgt            1          12  -606027.47526815045                3     1482016           0
<weights>
-.11145E+08
-.13032E+08
-.90920E+07
-.15837E+08
-.72847E+07
-.91732E+07
-.13910E+08
-.11168E+08
-.11123E+08
-.10810E+08
-.10793E+08
-.10956E+08
-.10996E+08
-.10825E+08
-.10805E+08
-.11228E+08
-.11221E+08
-.11482E+08
-.11526E+08
-.11513E+08
-.11457E+08
-.11525E+08
-.11541E+08
-.11434E+08
-.11332E+08
-.11294E+08
-.11368E+08
-.11456E+08
-.11388E+08
-.11505E+08
-.11537E+08
-.11190E+08
-.11217E+08
-.11136E+08
-.11182E+08
-.11205E+08
-.11105E+08
-.11157E+08
-.11059E+08
-.11173E+08
-.11122E+08
-.11188E+08
-.11101E+08
-.11526E+08
-.10796E+08
</weights>
</event>
<event>
      7  10001  1.11453E+07  1.13394E+00 -1.00000E+00  5.16225E-01
      -4    -1     0     0     0   502  0.000000000E+00  0.000000000E+00  2.966872461E-01  2.966872461E-01  0.000000000E+00  0.00000E+00  9.000E+00
       2    -1     0     0   502     0  0.000000000E+00  0.000000000E+00 -6.154428904E+01  6.154428904E+01  0.000000000E+00  0.00000E+00  9.000E+00
      23     2     1     2     0     0 -1.895716139E+00  1.350922808E-01 -5.393779882E+01  5.400285731E+01  1.846744709E+00  0.00000E+00  9.000E+00
      11     1     3     3     0     0 -1.272049705E+00  5.634452602E-01 -4.755888950E+01  4.757923446E+01  5.110000000E-04  0.00000E+00  9.000E+00
     -11     1     3     3     0     0 -6.236664341E-01 -4.283529794E-01 -6.378909322E+00  6.423622848E+00  5.110000000E-04  0.00000E+00  9.000E+00
      -4     1     1     2     0   501  9.386827081E-01 -7.432850896E-01 -1.502898815E+00  1.921536572E+00  0.000000000E+00  0.00000E+00  9.000E+00
       2     1     1     2   501     0  9.570334308E-01  6.081928088E-01 -5.806904157E+00  5.916582406E+00  0.000000000E+00  0.00000E+00  9.000E+00
#rwgt            2          47   14454.858983551661                3     1484106           0
<weights>
0.11145E+08
0.11222E+08
0.10865E+08
0.13638E+08
0.87055E+07
0.91702E+07
0.13910E+08
0.11176E+08
0.11114E+08
0.11104E+08
0.11137E+08
0.11158E+08
0.11077E+08
0.11132E+08
0.11136E+08
0.11123E+08
0.11150E+08
0.11067E+08
0.11254E+08
0.11265E+08
0.11059E+08
0.11152E+08
0.11143E+08
0.11235E+08
0.11067E+08
0.11089E+08
0.11168E+08
0.11280E+08
0.10935E+08
0.11155E+08
0.11132E+08
0.11140E+08
0.11150E+08
0.11070E+08
0.11245E+08
0.11126E+08
0.11161E+08
0.11060E+08
0.11241E+08
0.11082E+08
0.11196E+08
0.11203E+08
0.11083E+08
0.11161E+08
0.11125E+08
</weights>
</event>
<event>
      7  10001  1.11453E+07  1.10688E+00 -1.00000E+00  5.24788E-01
      -2    -1     0     0     0   502  0.000000000E+00  0.000000000E+00  2.298463007E-01  2.298463007E-01  0.000000000E+00  0.00000E+00  9.000E+00
      21    -1     0     0   502   511  0.000000000E+00  0.000000000E+00 -4.036809031E+02  4.036809031E+02  0.000000000E+00  0.00000E+00  9.000E+00
      23     2     1     2     0     0 -5.587231839E-01  2.229017904E-01 -3.071008598E+00  3.417453652E+00  1.373331297E+00  0.00000E+00  9.000E+00
      11     1     3     3     0     0 -2.684290828E-01  5.839984062E-01 -5.257631922E-01  8.303827469E-01  5.110000000E-04  0.00000E+00  9.000E+00
     -11     1     3     3     0     0 -2.902941011E-01 -3.610966158E-01 -2.545245406E+00  2.587070905E+00  5.110000000E-04  0.00000E+00  9.000E+00
      -2     1     1     2     0   501  2.780200191E-01  8.477986547E-01 -3.507394444E+00  3.619098434E+00  0.000000000E+00  0.00000E+00  9.000E+00
      21     1     1     2   501   511  2.807031648E-01 -1.070700445E+00 -3.968726538E+02  3.968741973E+02  0.000000000E+00  0.00000E+00  9.000E+00
#rwgt            1           7   581699.44904295285                3     1484528           0
<weights>
0.11145E+08
0.14125E+08
0.84151E+07
0.10845E+08
0.10545E+08
0.13286E+08
0.75914E+07
0.11263E+08
0.11020E+08
0.10458E+08
0.10436E+08
0.10790E+08
0.10821E+08
0.10479E+08
0.10446E+08
0.11300E+08
0.11350E+08
0.11858E+08
0.11891E+08
0.11891E+08
0.11798E+08
0.11927E+08
0.11974E+08
0.11560E+08
0.11638E+08
0.11582E+08
0.11063E+08
0.11834E+08
0.11600E+08
0.11888E+08
0.11950E+08
0.11246E+08
0.11283E+08
0.11127E+08
0.11216E+08
0.11323E+08
0.11001E+08
0.11160E+08
0.10914E+08
0.11249E+08
0.11056E+08
0.11218E+08
0.11069E+08
0.11926E+08
0.10433E+08
</weights>
</event>
<event>
      7  10001  1.11453E+07  3.91538E+00 -1.00000E+00  2.62437E-01
      21    -1     0     0   502   501  0.000000000E+00  0.000000000E+00  1.604131471E-01  1.604131471E-01  0.000000000E+00  0.00000E+00  9.000E+00
       2    -1     0     0   501     0  0.000000000E+00  0.000000000E+00 -3.567367682E+01  3.567367682E+01  0.000000000E+00  0.00000E+00  9.000E+00
      23     2     1     2     0     0  5.127644960E-01 -1.023651451E-01 -2.793456324E+01  2.796519613E+01  1.199568683E+00  0.00000E+00  9.000E+00
      11     1     3     3     0     0  6.482552448E-01  4.082650087E-01 -1.849612580E+01  1.851198490E+01  5.110000000E-04  0.00000E+00  9.000E+00
     -11     1     3     3     0     0 -1.354907488E-01 -5.106301538E-01 -9.438437444E+00  9.453211229E+00  5.110000000E-04  0.00000E+00  9.000E+00
       2     1     1     2   511     0 -2.480954417E-01 -3.426301077E-01 -7.235196147E+00  7.247552002E+00  0.000000000E+00  0.00000E+00  9.000E+00
      21     1     1     2   502   511 -2.646690543E-01  4.449952528E-01 -3.435042853E-01  6.213418361E-01  8.672808652E-08  0.00000E+00  9.000E+00
#rwgt            2         189   3939623.4397752630                3     1514511           0
<weights>
0.11145E+08
0.11364E+08
0.10685E+08
0.13812E+08
0.85614E+07
0.91702E+07
0.13910E+08
0.11195E+08
0.11095E+08
0.11033E+08
0.11077E+08
0.11130E+08
0.11041E+08
0.11067E+08
0.11076E+08
0.11088E+08
0.11235E+08
0.11108E+08
0.11351E+08
0.11361E+08
0.11098E+08
0.11215E+08
0.11218E+08
0.11238E+08
0.11155E+08
0.11158E+08
0.11135E+08
0.11347E+08
0.10950E+08
0.11207E+08
0.11192E+08
0.11144E+08
0.11166E+08
0.11072E+08
0.11252E+08
0.11115E+08
0.11177E+08
0.11000E+08
0.11283E+08
0.11080E+08
0.11198E+08
0.11210E+08
0.11076E+08
0.11230E+08
0.11061E+08
</weights>
</event>
<event>
      6  10001 -1.11453E+07  8.94427E-01 -1.00000E+00  3.46325E-01
       1    -1     0     0   501     0  0.000000000E+00  0.000000000E+00  1.528765024E+02  1.528765024E+02  0.000000000E+00  0.00000E+00  9.000E+00
      21    -1     0     0   502   501  0.000000000E+00  0.000000000E+00 -2.291194517E-02  2.291194517E-02  0.000000000E+00  0.00000E+00  9.000E+00
      23     2     1     2     0     0 -8.810977960E-01 -2.366005928E-01  6.673884805E+01  6.677983950E+01  2.154254066E+00  0.00000E+00  9.000E+00
      11     1     3     3     0     0 -1.099213342E+00  5.734873503E-01  2.335885459E+01  2.339173456E+01  5.110000000E-04  0.00000E+00  9.000E+00
     -11     1     3     3     0     0  2.181155463E-01 -8.100879432E-01  4.337999347E+01  4.338810494E+01  5.110000000E-04  0.00000E+00  9.000E+00
       1     1     1     2   502     0  8.810977960E-01  2.366005928E-01  8.611474239E+01  8.611957483E+01  0.000000000E+00  0.00000E+00  9.000E+00
#rwgt            1          22  -1141765.1354202158                3     1515978           0
<weights>
-.11145E+08
-.12480E+08
-.96238E+07
-.15180E+08
-.77115E+07
-.91628E+07
-.13909E+08
-.11177E+08
-.11114E+08
-.10836E+08
-.10833E+08
-.10967E+08
-.11017E+08
-.10856E+08
-.10843E+08
-.11224E+08
-.11200E+08
-.11443E+08
-.11481E+08
-.11470E+08
-.11421E+08
-.11478E+08
-.11500E+08
-.11385E+08
-.11326E+08
-.11280E+08
-.11321E+08
-.11414E+08
-.11355E+08
-.11453E+08
-.11490E+08
-.11177E+08
-.11217E+08
-.11140E+08
-.11173E+08
-.11213E+08
-.11096E+08
-.11107E+08
-.11112E+08
-.11160E+08
-.11133E+08
-.11182E+08
-.11107E+08
-.11486E+08
-.10831E+08
</weights>
</event>
<event>
      6  10001  1.11453E+07  8.94427E-01 -1.00000E+00  6.01017E-01
      -2    -1     0     0     0   502  0.000000000E+00  0.000000000E+00  1.358114848E-01  1.358114848E-01  0.000000000E+00  0.00000E+00  9.000E+00
       2    -1     0     0   501     0  0.000000000E+00  0.000000000E+00 -3.081762556E+01  3.081762556E+01  0.000000000E+00  0.00000E+00  9.000E+00
      23     2     1     2     0     0  2.663500420E-01 -3.188457278E-01 -2.292388372E+00  2.560971553E+00  1.063450001E+00  0.00000E+00  9.000E+00
      11     1     3     3     0     0 -3.765026784E-02  2.499344791E-01 -1.579726279E+00  1.599818791E+00  5.110000000E-04  0.00000E+00  9.000E+00
     -11     1     3     3     0     0  3.040003098E-01 -5.687802068E-01 -7.126620933E-01  9.611527622E-01  5.110000000E-04  0.00000E+00  9.000E+00
      21     1     1     2   501   502 -2.663500420E-01  3.188457278E-01 -2.838942570E+01  2.839246549E+01  0.000000000E+00  0.00000E+00  9.000E+00
#rwgt            1           8   762635.09089342342                3     1516288           0
<weights>
0.11134E+08
0.12258E+08
0.10211E+08
0.12102E+08
0.98144E+07
0.11020E+08
0.11275E+08
0.11203E+08
0.11065E+08
0.10932E+08
0.10986E+08
0.11089E+08
0.10974E+08
0.10970E+08
0.10984E+08
0.11050E+08
0.11315E+08
0.11156E+08
0.11469E+08
0.11480E+08
0.11140E+08
0.11292E+08
0.11311E+08
0.11246E+08
0.11245E+08
0.11224E+08
0.11090E+08
0.11432E+08
0.10960E+08
0.11275E+08
0.11266E+08
0.11142E+08
0.11174E+08
0.11055E+08
0.11259E+08
0.11093E+08
0.11184E+08
0.10937E+08
0.11291E+08
0.11073E+08
0.11183E+08
0.11213E+08
0.11051E+08
0.11312E+08
0.10965E+08
</weights>
</event>
<event>
      6  10001 -1.11453E+07  8.94427E-01 -1.00000E+00  6.04873E-01
      -2    -1     0     0     0   502  0.000000000E+00  0.000000000E+00  5.550377154E+01  5.550377154E+01  0.000000000E+00  0.00000E+00  9.000E+00
      21    -1     0     0   502   501  0.000000000E+00  0.000000000E+00 -2.352878646E-02  2.352878646E-02  0.000000000E+00  0.00000E+00  9.000E+00
      23     2     1     2     0     0  4.240286057E-01  4.015302298E-01  3.059642691E+01  3.063663305E+01  1.456337148E+00  0.00000E+00  9.000E+00
      11     1     3     3     0     0  7.566646783E-01  6.838672392E-01  1.528415840E+01  1.531814983E+01  5.110000000E-04  0.00000E+00  9.000E+00
     -11     1     3     3     0     0 -3.326360726E-01 -2.823370094E-01  1.531226851E+01  1.531848322E+01  5.110000000E-04  0.00000E+00  9.000E+00
      -2     1     1     2     0   501 -4.240286057E-01 -4.015302298E-01  2.488381584E+01  2.489066728E+01  0.000000000E+00  0.00000E+00  9.000E+00
#rwgt            1           7  -6032104.5928408587                3     1519497           0
<weights>
-.11145E+08
-.12572E+08
-.95743E+07
-.15227E+08
-.76691E+07
-.92066E+07
-.13913E+08
-.11171E+08
-.11121E+08
-.10824E+08
-.10814E+08
-.10962E+08
-.11006E+08
-.10842E+08
-.10825E+08
-.11226E+08
-.11210E+08
-.11461E+08
-.11504E+08
-.11491E+08
-.11437E+08
-.11500E+08
-.11520E+08
-.11412E+08
-.11328E+08
-.11286E+08
-.11357E+08
-.11433E+08
-.11371E+08
-.11478E+08
-.11512E+08
-.11183E+08
-.11217E+08
-.11138E+08
-.11177E+08
-.11208E+08
-.11102E+08
-.11130E+08
-.11086E+08
-.11166E+08
-.11128E+08
-.11185E+08
-.11104E+08
-.11505E+08
-.10815E+08
</weights>
</event>
<event>
      7  10001  1.11453E+07  1.18925E+00 -1.00000E+00  4.99788E-01
      -3    -1     0     0     0   501  0.000000000E+00  0.000000000E+00  7.538342838E+01  7.538342838E+01  0.000000000E+00  0.00000E+00  9.000E+00
      -2    -1     0     0     0   502  0.000000000E+00  0.000000000E+00 -2.632174986E-01  2.632174986E-01  0.000000000E+00  0.00000E+00  9.000E+00
      23     2     1     2     0     0  2.091983661E-01 -9.257144750E-02  8.877883371E+00  8.961393802E+00  1.198929650E+00  0.00000E+00  9.000E+00
      11     1     3     3     0     0 -2.616648888E-01 -5.214436391E-01  4.155034170E+00  4.195793274E+00  5.110000000E-04  0.00000E+00  9.000E+00
     -11     1     3     3     0     0  4.708632549E-01  4.288721916E-01  4.722849200E+00  4.765600528E+00  5.110000000E-04  0.00000E+00  9.000E+00
      -2     1     1     2     0   501 -2.625516080E-01  1.280623770E+00  1.762139962E+00  2.194098410E+00  0.000000000E+00  0.00000E+00  9.000E+00
      -3     1     1     2     0   502  5.335324186E-02 -1.188052323E+00  6.448018755E+01  6.449115367E+01  0.000000000E+00  0.00000E+00  9.000E+00
#rwgt            1          14   193216.77027223064                3     1520910           0
<weights>
0.10128E+08
0.29325E+08
0.93064E+07
0.11132E+08
0.87574E+07
0.24329E+08
0.10481E+08
0.98573E+07
0.10465E+08
0.98114E+07
0.97573E+07
0.99724E+07
0.99301E+07
0.98125E+07
0.97728E+07
0.10149E+08
0.10306E+08
0.10495E+08
0.10482E+08
0.10462E+08
0.10476E+08
0.10532E+08
0.10515E+08
0.10484E+08
0.10239E+08
0.10339E+08
0.10211E+08
0.10496E+08
0.10319E+08
0.10529E+08
0.10522E+08
0.10142E+08
0.10237E+08
0.10121E+08
0.10169E+08
0.99441E+07
0.10355E+08
0.10212E+08
0.99818E+07
0.10162E+08
0.10094E+08
0.10209E+08
0.10042E+08
0.10511E+08
0.97792E+07
</weights>
</event>
<event>
      6  10001  1.11453E+07  8.94427E-01 -1.00000E+00  5.90948E-01
      -4    -1     0     0     0   502  0.000000000E+00  0.000000000E+00  2.948719801E-01  2.948719801E-01  0.000000000E+00  0.00000E+00  9.000E+00
      21    -1     0     0   502   501  0.000000000E+00  0.000000000E+00 -4.155553307E+00  4.155553307E+00  0.000000000E+00  0.00000E+00  9.000E+00
      23     2     1     2     0     0 -2.885237216E-01 -1.891461446E-01 -1.345154076E+00  1.911350740E+00  1.313316399E+00  0.00000E+00  9.000E+00
      11     1     3     3     0     0 -1.276115605E-01 -2.656023920E-01 -1.585235454E+00  1.612389856E+00  5.110000000E-04  0.00000E+00  9.000E+00
     -11     1     3     3     0     0 -1.609121611E-01  7.645624746E-02  2.400813783E-01  2.989608848E-01  5.110000000E-04  0.00000E+00  9.000E+00
      -4     1     1     2     0   501  2.885237216E-01  1.891461446E-01 -2.515527252E+00  2.539074547E+00  0.000000000E+00  0.00000E+00  9.000E+00
#rwgt            1           3   464540.70074077114                3     1534708           0
<weights>
0.11145E+08
0.17217E+08
0.56129E+07
0.10842E+08
0.10119E+08
0.15531E+08
0.41452E+07
0.11216E+08
0.11063E+08
0.10428E+08
0.10318E+08
0.10777E+08
0.10768E+08
0.10408E+08
0.10342E+08
0.11310E+08
0.11430E+08
0.11980E+08
0.11998E+08
0.11998E+08
0.11910E+08
0.12075E+08
0.12075E+08
0.11719E+08
0.11613E+08
0.11615E+08
0.11143E+08
0.11977E+08
0.11708E+08
0.12070E+08
0.12091E+08
0.11316E+08
0.11255E+08
0.11096E+08
0.11264E+08
0.11271E+08
0.11054E+08
0.11457E+08
0.10611E+08
0.11304E+08
0.11009E+08
0.11234E+08
0.11052E+08
0.12028E+08
0.10350E+08
</weights>
</event>
<event>
      6  10001 -1.11453E+07  8.94427E-01 -1.00000E+00  1.84324E-01
      -5    -1     0     0     0   502  0.000000000E+00  0.000000000E+00  2.442136353E+01  2.442136353E+01  0.000000000E+00  0.00000E+00  9.000E+00
      21    -1     0     0   502   501  0.000000000E+00  0.000000000E+00 -2.007608326E-02  2.007608326E-02  0.000000000E+00  0.00000E+00  9.000E+00
      23     2     1     2     0     0 -2.227239776E-01 -1.676798268E-01  1.884353891E+01  1.887670320E+01  1.083163306E+00  0.00000E+00  9.000E+00
      11     1     3     3     0     0  3.955558702E-01 -1.534961059E-01  4.534956932E+00  4.554762358E+00  5.110000000E-04  0.00000E+00  9.000E+00
     -11     1     3     3     0     0 -6.182798478E-01 -1.418372087E-02  1.430858198E+01  1.432194085E+01  5.110000000E-04  0.00000E+00  9.000E+00
      -5     1     1     2     0   501  2.227239776E-01  1.676798268E-01  5.557748540E+00  5.564736411E+00  0.000000000E+00  0.00000E+00  9.000E+00
#rwgt            1           1  -392810.52407805424                3     1552446           0
<weights>
-.11145E+08
-.13893E+08
-.82950E+07
-.16895E+08
-.66466E+07
-.91651E+07
-.13909E+08
-.11176E+08
-.11115E+08
-.10831E+08
-.10825E+08
-.10964E+08
-.11013E+08
-.10850E+08
-.10835E+08
-.11225E+08
-.11205E+08
-.11452E+08
-.11489E+08
-.11479E+08
-.11429E+08
-.11488E+08
-.11509E+08
-.11393E+08
-.11329E+08
-.11285E+08
-.11320E+08
-.11423E+08
-.11362E+08
-.11465E+08
-.11501E+08
-.11180E+08
-.11217E+08
-.11139E+08
-.11175E+08
-.11212E+08
-.11097E+08
-.11118E+08
-.11098E+08
-.11163E+08
-.11131E+08
-.11183E+08
-.11106E+08
-.11494E+08
-.10824E+08
</weights>
</event>
<event>
      6  10001 -1.11453E+07  8.94427E-01 -1.00000E+00  3.43186E-01
       2    -1     0     0   501     0  0.000000000E+00  0.000000000E+00  2.532066638E+02  2.532066638E+02  0.000000000E+00  0.00000E+00  9.000E+00
      21    -1     0     0   502   501  0.000000000E+00  0.000000000E+00 -1.556437455E-02  1.556437455E-02  0.000000000E+00  0.00000E+00  9.000E+00
      23     2     1     2     0     0  5.097616320E-01 -9.612447718E-01  2.171023430E+02  2.171170736E+02  2.283079625E+00  0.00000E+00  9.000E+00
      11     1     3     3     0     0 -3.701083649E-01  2.294047681E-01  1.004016946E+01  1.004960744E+01  5.110000000E-04  0.00000E+00  9.000E+00
     -11     1     3     3     0     0  8.798699969E-01 -1.190649540E+00  2.070621736E+02  2.070674662E+02  5.110000000E-04  0.00000E+00  9.000E+00
       2     1     1     2   502     0 -5.097616320E-01  9.612447718E-01  3.608875639E+01  3.610515456E+01  0.000000000E+00  0.00000E+00  9.000E+00
#rwgt            1          24  -23588725.500830330                3     1554301           0
<weights>
-.11147E+08
-.11900E+08
-.10226E+08
-.14513E+08
-.81956E+07
-.91391E+07
-.13909E+08
-.11184E+08
-.11112E+08
-.10847E+08
-.10850E+08
-.10973E+08
-.11027E+08
-.10870E+08
-.10859E+08
-.11224E+08
-.11195E+08
-.11431E+08
-.11467E+08
-.11456E+08
-.11409E+08
-.11462E+08
-.11488E+08
-.11367E+08
-.11328E+08
-.11278E+08
-.11299E+08
-.11400E+08
-.11344E+08
-.11436E+08
-.11475E+08
-.11174E+08
-.11219E+08
-.11144E+08
-.11172E+08
-.11219E+08
-.11094E+08
-.11089E+08
-.11135E+08
-.11157E+08
-.11140E+08
-.11182E+08
-.11111E+08
-.11473E+08
-.10846E+08
</weights>
</event>
<event>
      6  10001 -1.11453E+07  8.94427E-01 -1.00000E+00  2.76654E-01
      21    -1     0     0   502   501  0.000000000E+00  0.000000000E+00  8.074847492E-03  8.074847492E-03  0.000000000E+00  0.00000E+00  9.000E+00
      -4    -1     0     0     0   502  0.000000000E+00  0.000000000E+00 -6.433334755E+02  6.433334755E+02  0.000000000E+00  0.00000E+00  9.000E+00
      23     2     1     2     0     0 -3.107280078E-01 -2.589623505E-01 -6.367825245E+02  6.367861830E+02  2.120299873E+00  0.00000E+00  9.000E+00
      11     1     3     3     0     0 -5.156295420E-01 -8.002292649E-01 -5.785355951E+02  5.785363783E+02  5.110000000E-04  0.00000E+00  9.000E+00
     -11     1     3     3     0     0  2.049015342E-01  5.412669144E-01 -5.824692946E+01  5.824980469E+01  5.110000000E-04  0.00000E+00  9.000E+00
      -4     1     1     2     0   501  3.107280078E-01  2.589623505E-01 -6.542876117E+00  6.555367364E+00  0.000000000E+00  0.00000E+00  9.000E+00
#rwgt            1          12  -1857274.2747011080                3     1555588           0
<weights>
-.11145E+08
-.11539E+08
-.10674E+08
-.14024E+08
-.85529E+07
-.91702E+07
-.13910E+08
-.10461E+08
-.11849E+08
-.12907E+08
-.11855E+08
-.11468E+08
-.12184E+08
-.11967E+08
-.12085E+08
-.10828E+08
-.11427E+08
-.10229E+08
-.10613E+08
-.10648E+08
-.10268E+08
-.10199E+08
-.10439E+08
-.11187E+08
-.10058E+08
-.10415E+08
-.11471E+08
-.10587E+08
-.10728E+08
-.10617E+08
-.10222E+08
-.11672E+08
-.10346E+08
-.10820E+08
-.11510E+08
-.10468E+08
-.11775E+08
-.13483E+08
-.90398E+07
-.10848E+08
-.11432E+08
-.10877E+08
-.11435E+08
-.10004E+08
-.12346E+08
</weights>
</event>
<event>
      6  10001 -1.11453E+07  8.94427E-01 -1.00000E+00  5.25716E-01
      21    -1     0     0   502   501  0.000000000E+00  0.000000000E+00  2.411417450E-02  2.411417450E-02  0.000000000E+00  0.00000E+00  9.000E+00
       4    -1     0     0   501     0  0.000000000E+00  0.000000000E+00 -5.528987684E+01  5.528987684E+01  0.000000000E+00  0.00000E+00  9.000E+00
      23     2     1     2     0     0  1.409983819E-01 -4.746126571E-01 -5.048116918E+01  5.050384834E+01  1.430076136E+00  0.00000E+00  9.000E+00
      11     1     3     3     0     0 -1.016654560E-01 -5.290884097E-01 -4.892213973E+01  4.892510630E+01  5.110000000E-04  0.00000E+00  9.000E+00
     -11     1     3     3     0     0  2.426638379E-01  5.447575261E-02 -1.559029445E+00  1.578742037E+00  5.110000000E-04  0.00000E+00  9.000E+00
       4     1     1     2   502     0 -1.409983819E-01  4.746126571E-01 -4.784593488E+00  4.810142676E+00  0.000000000E+00  0.00000E+00  9.000E+00
#rwgt            1          19  -7375933.9011579668                3     1556909           0
<weights>
-.11145E+08
-.13038E+08
-.91221E+07
-.15846E+08
-.73091E+07
-.91702E+07
-.13910E+08
-.11224E+08
-.11067E+08
-.10987E+08
-.11074E+08
-.10982E+08
-.11207E+08
-.11070E+08
-.11082E+08
-.11175E+08
-.11087E+08
-.11195E+08
-.11172E+08
-.11166E+08
-.11198E+08
-.11188E+08
-.11192E+08
-.11132E+08
-.11232E+08
-.11216E+08
-.11095E+08
-.11183E+08
-.11110E+08
-.11129E+08
-.11190E+08
-.11085E+08
-.11223E+08
-.11170E+08
-.11117E+08
-.11295E+08
-.11010E+08
-.10778E+08
-.11556E+08
-.11045E+08
-.11238E+08
-.11111E+08
-.11183E+08
-.11239E+08
-.11040E+08
</weights>
</event>
<event>
      6  10001 -1.11453E+07  8.94427E-01 -1.00000E+00  1.79014E-01
       2    -1     0     0   501     0  0.000000000E+00  0.000000000E+00  1.588858743E+02  1.588858743E+02  0.000000000E+00  0.00000E+00  9.000E+00
      21    -1     0     0   502   501  0.000000000E+00  0.000000000E+00 -3.006471247E-03  3.006471247E-03  0.000000000E+00  0.00000E+00  9.000E+00
      23     2     1     2     0     0  1.639510446E-01 -2.043344997E-01  1.352017358E+02  1.352062997E+02  1.079573919E+00  0.00000E+00  9.000E+00
      11     1     3     3     0     0 -2.083621936E-01 -7.674528095E-02  6.217979222E+00  6.221942663E+00  5.110000000E-04  0.00000E+00  9.000E+00
     -11     1     3     3     0     0  3.723132383E-01 -1.275892188E-01  1.289837566E+02  1.289843570E+02  5.110000000E-04  0.00000E+00  9.000E+00
       2     1     1     2   502     0 -1.639510446E-01  2.043344997E-01  2.368113207E+01  2.368258112E+01  0.000000000E+00  0.00000E+00  9.000E+00
#rwgt            1          24  -30192570.694064774                3     1557635           0
<weights>
-.11145E+08
-.11780E+08
-.10512E+08
-.14298E+08
-.84219E+07
-.91845E+07
-.13911E+08
-.11193E+08
-.11097E+08
-.10867E+08
-.10886E+08
-.10984E+08
-.11038E+08
-.10895E+08
-.10892E+08
-.11222E+08
-.11164E+08
-.11390E+08
-.11423E+08
-.11416E+08
-.11371E+08
-.11415E+08
-.11450E+08
-.11317E+08
-.11316E+08
-.11239E+08
-.11250E+08
-.11348E+08
-.11320E+08
-.11383E+08
-.11429E+08
-.11158E+08
-.11217E+08
-.11148E+08
-.11158E+08
-.11218E+08
-.11089E+08
-.11035E+08
-.11187E+08
-.11143E+08
-.11147E+08
-.11179E+08
-.11110E+08
-.11434E+08
-.10876E+08
</weights>
</event>
<event>
      6  10001 -1.11453E+07  8.94427E-01 -1.00000E+00  1.70262E-01
      -2    -1     0     0     0   502  0.000000000E+00  0.000000000E+00  1.890513227E+02  1.890513227E+02  0.000000000E+00  0.00000E+00  9.000E+00
      21    -1     0     0   502   501  0.000000000E+00  0.000000000E+00 -6.288462358E-03  6.288462358E-03  0.000000000E+00  0.00000E+00  9.000E+00
      23     2     1     2     0     0  2.312049850E-01  2.557649521E-01  1.657049529E+02  1.657149835E+02  1.790378258E+00  0.00000E+00  9.000E+00
      11     1     3     3     0     0 -4.341078685E-01 -2.551931862E-01  1.267447986E+02  1.267457989E+02  5.110000000E-04  0.00000E+00  9.000E+00
     -11     1     3     3     0     0  6.653128535E-01  5.109581383E-01  3.896015435E+01  3.896918458E+01  5.110000000E-04  0.00000E+00  9.000E+00
      -2     1     1     2     0   501 -2.312049850E-01 -2.557649521E-01  2.334008130E+01  2.334262767E+01  0.000000000E+00  0.00000E+00  9.000E+00
#rwgt            1           7  -2501287.6998671708                3     1559745           0
<weights>
-.11145E+08
-.11934E+08
-.10159E+08
-.14509E+08
-.81401E+07
-.91672E+07
-.13909E+08
-.11170E+08
-.11121E+08
-.10824E+08
-.10814E+08
-.10962E+08
-.11006E+08
-.10842E+08
-.10825E+08
-.11225E+08
-.11211E+08
-.11461E+08
-.11504E+08
-.11492E+08
-.11437E+08
-.11500E+08
-.11520E+08
-.11413E+08
-.11327E+08
-.11285E+08
-.11361E+08
-.11433E+08
-.11372E+08
-.11478E+08
-.11513E+08
-.11183E+08
-.11217E+08
-.11138E+08
-.11177E+08
-.11207E+08
-.11102E+08
-.11131E+08
-.11085E+08
-.11166E+08
-.11128E+08
-.11185E+08
-.11104E+08
-.11505E+08
-.10815E+08
</weights>
</event>
<event>
      6  10001 -1.11453E+07  8.94427E-01 -1.00000E+00  1.37217E-01
       2    -1     0     0   501     0  0.000000000E+00  0.000000000E+00  3.870868109E+01  3.870868109E+01  0.000000000E+00  0.00000E+00  9.000E+00
      21    -1     0     0   502   501  0.000000000E+00  0.000000000E+00 -2.189017719E-02  2.189017719E-02  0.000000000E+00  0.00000E+00  9.000E+00
      23     2     1     2     0     0 -3.601110003E-01  1.296673618E-01  3.449661871E+01  3.452295476E+01  1.292752717E+00  0.00000E+00  9.000E+00
      11     1     3     3     0     0  2.841801049E-01 -3.407548256E-01  1.957346189E+01  1.957849031E+01  5.110000000E-04  0.00000E+00  9.000E+00
     -11     1     3     3     0     0 -6.442911052E-01  4.704221874E-01  1.492315681E+01  1.494446445E+01  5.110000000E-04  0.00000E+00  9.000E+00
       2     1     1     2   502     0  3.601110003E-01 -1.296673618E-01  4.190172205E+00  4.207616506E+00  0.000000000E+00  0.00000E+00  9.000E+00
#rwgt            1          24  -12458488.030674929                3     1562076           0
<weights>
-.11145E+08
-.12801E+08
-.93544E+07
-.15569E+08
-.74956E+07
-.91638E+07
-.13909E+08
-.11169E+08
-.11122E+08
-.10874E+08
-.10866E+08
-.10982E+08
-.11037E+08
-.10893E+08
-.10877E+08
-.11219E+08
-.11187E+08
-.11411E+08
-.11436E+08
-.11425E+08
-.11392E+08
-.11442E+08
-.11454E+08
-.11365E+08
-.11297E+08
-.11261E+08
-.11310E+08
-.11383E+08
-.11332E+08
-.11421E+08
-.11452E+08
-.11176E+08
-.11206E+08
-.11136E+08
-.11175E+08
-.11204E+08
-.11103E+08
-.11122E+08
-.11106E+08
-.11153E+08
-.11139E+08
-.11178E+08
-.11112E+08
-.11446E+08
-.10867E+08
</weights>
</event>
<event>
      6  10001 -1.11453E+07  8.94427E-01 -1.00000E+00  4.33767E-01
       2    -1     0     0   501     0  0.000000000E+00  0.000000000E+00  4.258902481E+02  4.258902481E+02  0.000000000E+00  0.00000E+00  9.000E+00
      21    -1     0     0   502   501  0.000000000E+00  0.000000000E+00 -8.799749656E-03  8.799749656E-03  0.000000000E+00  0.00000E+00  9.000E+00
      23     2     1     2     0     0  2.145384987E-01  1.186459651E+00  1.322061235E+02  1.322212480E+02  1.595497381E+00  0.00000E+00  9.000E+00
      11     1     3     3     0     0  2.474328421E-01  1.552587399E+00  9.188922531E+01  9.190267395E+01  5.110000000E-04  0.00000E+00  9.000E+00
     -11     1     3     3     0     0 -3.289434338E-02 -3.661277475E-01  4.031689817E+01  4.031857400E+01  5.110000000E-04  0.00000E+00  9.000E+00
       2     1     1     2   502     0 -2.145384987E-01 -1.186459651E+00  2.936753249E+02  2.936777999E+02  0.000000000E+00  0.00000E+00  9.000E+00
#rwgt            1          24  -9934910.9290330280                3     1564540           0
<weights>
-.11145E+08
-.12213E+08
-.98499E+07
-.14854E+08
-.78926E+07
-.91642E+07
-.13909E+08
-.11175E+08
-.11117E+08
-.10830E+08
-.10824E+08
-.10965E+08
-.11012E+08
-.10849E+08
-.10834E+08
-.11225E+08
-.11206E+08
-.11452E+08
-.11491E+08
-.11480E+08
-.11429E+08
-.11489E+08
-.11510E+08
-.11396E+08
-.11328E+08
-.11285E+08
-.11332E+08
-.11424E+08
-.11362E+08
-.11466E+08
-.11501E+08
-.11180E+08
-.11217E+08
-.11138E+08
-.11176E+08
-.11211E+08
-.11098E+08
-.11119E+08
-.11097E+08
-.11163E+08
-.11130E+08
-.11183E+08
-.11106E+08
-.11495E+08
-.10823E+08
</weights>
</event>
<event>
      6  10001 -1.11453E+07  8.94427E-01 -1.00000E+00  3.96346E-01
       2    -1     0     0   501     0  0.000000000E+00  0.000000000E+00  9.355806330E+01  9.355806330E+01  0.000000000E+00  0.00000E+00  9.000E+00
      21    -1     0     0   502   501  0.000000000E+00  0.000000000E+00 -2.306211956E-02  2.306211956E-02  0.000000000E+00  0.00000E+00  9.000E+00
      23     2     1     2     0     0 -3.256294027E-02  3.148433494E-01  9.187111166E+01  9.188739728E+01  1.700715812E+00  0.00000E+00  9.000E+00
      11     1     3     3     0     0  6.927871405E-01  1.432942524E-01  2.015457574E+01  2.016698815E+01  5.110000000E-04  0.00000E+00  9.000E+00
     -11     1     3     3     0     0 -7.253500808E-01  1.715490970E-01  7.171653592E+01  7.172040914E+01  5.110000000E-04  0.00000E+00  9.000E+00
       2     1     1     2   502     0  3.256294027E-02 -3.148433494E-01  1.663889516E+00  1.693728137E+00  0.000000000E+00  0.00000E+00  9.000E+00
#rwgt            1          24  -21466649.474062607                3     1567169           0
<weights>
-.11145E+08
-.12383E+08
-.97317E+07
-.15061E+08
-.77979E+07
-.91636E+07
-.13909E+08
-.11173E+08
-.11118E+08
-.10826E+08
-.10818E+08
-.10963E+08
-.11009E+08
-.10844E+08
-.10828E+08
-.11225E+08
-.11208E+08
-.11458E+08
-.11498E+08
-.11487E+08
-.11435E+08
-.11496E+08
-.11516E+08
-.11404E+08
-.11329E+08
-.11286E+08
-.11340E+08
-.11430E+08
-.11368E+08
-.11473E+08
-.11508E+08
-.11182E+08
-.11217E+08
-.11138E+08
-.11177E+08
-.11210E+08
-.11100E+08
-.11126E+08
-.11090E+08
-.11165E+08
-.11129E+08
-.11184E+08
-.11104E+08
-.11501E+08
-.10818E+08
</weights>
</event>
<event>
      6  10001 -1.11453E+07  8.94427E-01 -1.00000E+00  3.60481E-01
       2    -1     0     0   501     0  0.000000000E+00  0.000000000E+00  8.590198933E+02  8.590198933E+02  0.000000000E+00  0.00000E+00  9.000E+00
      21    -1     0     0   502   501  0.000000000E+00  0.000000000E+00 -1.931725983E-03  1.931725983E-03  0.000000000E+00  0.00000E+00  9.000E+00
      23     2     1     2     0     0  5.373848980E-01 -3.280540509E-01  7.913934369E+02  7.913943695E+02  1.039097674E+00  0.00000E+00  9.000E+00
      11     1     3     3     0     0  2.668695995E-01  3.744247280E-01  3.245793851E+02  3.245797107E+02  5.110000000E-04  0.00000E+00  9.000E+00
     -11     1     3     3     0     0  2.705152985E-01 -7.024787789E-01  4.668140518E+02  4.668146588E+02  5.110000000E-04  0.00000E+00  9.000E+00
       2     1     1     2   502     0 -5.373848980E-01  3.280540509E-01  6.762452462E+01  6.762745546E+01  0.000000000E+00  0.00000E+00  9.000E+00
#rwgt            1          24  -55697372.998799846                3     1569089           0
<weights>
-.11145E+08
-.10882E+08
-.11358E+08
-.13231E+08
-.91011E+07
-.91671E+07
-.13909E+08
-.11182E+08
-.11108E+08
-.10839E+08
-.10837E+08
-.10967E+08
-.11020E+08
-.10860E+08
-.10847E+08
-.11224E+08
-.11198E+08
-.11440E+08
-.11472E+08
-.11462E+08
-.11418E+08
-.11473E+08
-.11496E+08
-.11370E+08
-.11329E+08
-.11283E+08
-.11279E+08
-.11411E+08
-.11350E+08
-.11448E+08
-.11486E+08
-.11176E+08
-.11216E+08
-.11139E+08
-.11173E+08
-.11217E+08
-.11091E+08
-.11103E+08
-.11113E+08
-.11159E+08
-.11134E+08
-.11181E+08
-.11108E+08
-.11482E+08
-.10835E+08
</weights>
</event>
<event>
      6  10001 -1.11453E+07  8.94427E-01 -1.00000E+00  2.32754E-01
       2    -1     0     0   501     0  0.000000000E+00  0.000000000E+00  1.961906479E-02  1.961906479E-02  0.000000000E+00  0.00000E+00  9.000E+00
      -2    -1     0     0     0   502  0.000000000E+00  0.000000000E+00 -9.317075666E+01  9.317075666E+01  0.000000000E+00  0.00000E+00  9.000E+00
      23     2     1     2     0     0  1.687039414E-01  3.665211952E-01 -8.705638881E+01  8.708228588E+01  2.084917866E+00  0.00000E+00  9.000E+00
      11     1     3     3     0     0  6.283458201E-01  8.361943013E-01 -2.435104024E+01  2.437349381E+01  5.110000000E-04  0.00000E+00  9.000E+00
     -11     1     3     3     0     0 -4.596418786E-01 -4.696731061E-01 -6.270534858E+01  6.270879208E+01  5.110000000E-04  0.00000E+00  9.000E+00
      21     1     1     2   501   502 -1.687039414E-01 -3.665211952E-01 -6.094748779E+00  6.108089839E+00  1.460009660E-07  0.00000E+00  9.000E+00
#rwgt            1          23  -1103836.5768605741                3     1571928           0
<weights>
-.11145E+08
-.12691E+08
-.94561E+07
-.15425E+08
-.75767E+07
-.91702E+07
-.13910E+08
-.11176E+08
-.11114E+08
-.11150E+08
-.11191E+08
-.11090E+08
-.11164E+08
-.11198E+08
-.11197E+08
-.11060E+08
-.11191E+08
-.11137E+08
-.10999E+08
-.10973E+08
-.11156E+08
-.11077E+08
-.11062E+08
-.11146E+08
-.11072E+08
-.11129E+08
-.11120E+08
-.11088E+08
-.10995E+08
-.11063E+08
-.11082E+08
-.11127E+08
-.11141E+08
-.11284E+08
-.11007E+08
-.11062E+08
-.11209E+08
-.11042E+08
-.11282E+08
-.11093E+08
-.11179E+08
-.11270E+08
-.11012E+08
-.11093E+08
-.11182E+08
</weights>
</event>
<event>
      7  10001  1.11453E+07  8.54954E+00 -1.00000E+00  2.03332E-01
      21    -1     0     0   502   501  0.000000000E+00  0.000000000E+00  7.726676800E+00  7.726676800E+00  0.000000000E+00  0.00000E+00  9.000E+00
       1    -1     0     0   501     0  0.000000000E+00  0.000000000E+00 -8.118866848E+00  8.118866848E+00  0.000000000E+00  0.00000E+00  9.000E+00
      23     2     1     2     0     0 -3.308384420E-01  3.335593050E+00  4.784596635E+00  6.020171873E+00  1.454121503E+00  0.00000E+00  9.000E+00
      11     1     3     3     0     0  4.682384745E-01  6.068879247E-01  1.431884084E+00  1.624146703E+00  5.110000000E-04  0.00000E+00  9.000E+00
     -11     1     3     3     0     0 -7.990769165E-01  2.728705126E+00  3.352712551E+00  4.396025170E+00  5.110000000E-04  0.00000E+00  9.000E+00
       1     1     1     2   511     0 -8.452873954E-01  1.803758094E+00 -3.932615348E+00  4.408346348E+00  0.000000000E+00  0.00000E+00  9.000E+00
      21     1     1     2   502   511  1.176125837E+00 -5.139351144E+00 -1.244171335E+00  5.417025427E+00  6.089453918E-07  0.00000E+00  9.000E+00
#rwgt            1          16   240119.06534907987                3     1572946           0
<weights>
0.11145E+08
0.11519E+08
0.10714E+08
0.12321E+08
0.97964E+07
0.10359E+08
0.12085E+08
0.11137E+08
0.11148E+08
0.10899E+08
0.10885E+08
0.10943E+08
0.11083E+08
0.10910E+08
0.10903E+08
0.11177E+08
0.11190E+08
0.11464E+08
0.11273E+08
0.11238E+08
0.11461E+08
0.11397E+08
0.11442E+08
0.11266E+08
0.11342E+08
0.11415E+08
0.11009E+08
0.11298E+08
0.11320E+08
0.11366E+08
0.11417E+08
0.11141E+08
0.11229E+08
0.11235E+08
0.11037E+08
0.11062E+08
0.11244E+08
0.11050E+08
0.11153E+08
0.11135E+08
0.11150E+08
0.11215E+08
0.11071E+08
0.11416E+08
0.10895E+08
</weights>
</event>
<event>
      6  10001 -1.11453E+07  8.94427E-01 -1.00000E+00  4.91335E-01
      21    -1     0     0   502   501  0.000000000E+00  0.000000000E+00  8.583792115E-03  8.583792115E-03  0.000000000E+00  0.00000E+00  9.000E+00
      -1    -1     0     0     0   502  0.000000000E+00  0.000000000E+00 -2.092207915E+02  2.092207915E+02  0.000000000E+00  0.00000E+00  9.000E+00
      23     2     1     2     0     0  6.495432549E-01 -1.545225482E-01 -1.421207334E+02  1.421345789E+02  1.868117095E+00  0.00000E+00  9.000E+00
      11     1     3     3     0     0 -6.086215300E-01 -1.160879326E-01 -7.103106017E+01  7.103376244E+01  5.110000000E-04  0.00000E+00  9.000E+00
     -11     1     3     3     0     0  1.258164785E+00 -3.843461558E-02 -7.108967325E+01  7.110081644E+01  5.110000000E-04  0.00000E+00  9.000E+00
      -1     1     1     2     0   501 -6.495432549E-01  1.545225482E-01 -6.709147424E+01  6.709479636E+01  0.000000000E+00  0.00000E+00  9.000E+00
#rwgt            1          15  -480660.21058481041                3     1578094           0
<weights>
-.11145E+08
-.11693E+08
-.10434E+08
-.14212E+08
-.83607E+07
-.91702E+07
-.13910E+08
-.11061E+08
-.11222E+08
-.11276E+08
-.11274E+08
-.11131E+08
-.11190E+08
-.11270E+08
-.11275E+08
-.11029E+08
-.11217E+08
-.11094E+08
-.10931E+08
-.10905E+08
-.11115E+08
-.11003E+08
-.11020E+08
-.11113E+08
-.11031E+08
-.11034E+08
-.11163E+08
-.11011E+08
-.10977E+08
-.11026E+08
-.11031E+08
-.11248E+08
-.10997E+08
-.11347E+08
-.10948E+08
-.11199E+08
-.11071E+08
-.11319E+08
-.10963E+08
-.11150E+08
-.11120E+08
-.11351E+08
-.10924E+08
-.10997E+08
-.11283E+08
</weights>
</event>
<event>
      6  10001  1.11453E+07  8.94427E-01 -1.00000E+00  6.05335E-01
      -2    -1     0     0     0   502  0.000000000E+00  0.000000000E+00  6.350782516E-01  6.350782516E-01  0.000000000E+00  0.00000E+00  9.000E+00
       2    -1     0     0   501     0  0.000000000E+00  0.000000000E+00 -6.002296728E+00  6.002296728E+00  0.000000000E+00  0.00000E+00  9.000E+00
      23     2     1     2     0     0  1.005199771E+00  4.422329148E-01 -5.291899483E+00  5.536616386E+00  1.201634027E+00  0.00000E+00  9.000E+00
      11     1     3     3     0     0  1.146894724E+00  6.927147454E-01 -4.321348734E+00  4.524298439E+00  5.110000000E-04  0.00000E+00  9.000E+00
     -11     1     3     3     0     0 -1.416949528E-01 -2.504818306E-01 -9.705507492E-01  1.012317947E+00  5.110000000E-04  0.00000E+00  9.000E+00
      21     1     1     2   501   502 -1.005199771E+00 -4.422329148E-01 -7.531899350E-02  1.100758594E+00  7.305393058E-08  0.00000E+00  9.000E+00
#rwgt            1           8   390618.26420838310                3     1578722           0
<weights>
0.11145E+08
0.12011E+08
0.10238E+08
0.12319E+08
0.95911E+07
0.10658E+08
0.11626E+08
0.11111E+08
0.11175E+08
0.10870E+08
0.10861E+08
0.11034E+08
0.10957E+08
0.10883E+08
0.10870E+08
0.11100E+08
0.11368E+08
0.11370E+08
0.11509E+08
0.11506E+08
0.11351E+08
0.11453E+08
0.11459E+08
0.11342E+08
0.11317E+08
0.11356E+08
0.11057E+08
0.11515E+08
0.11150E+08
0.11443E+08
0.11434E+08
0.11158E+08
0.11225E+08
0.11107E+08
0.11227E+08
0.11011E+08
0.11300E+08
0.11089E+08
0.11106E+08
0.11138E+08
0.11148E+08
0.11231E+08
0.11054E+08
0.11449E+08
0.10865E+08
</weights>
</event>
<event>
      6  10001 -1.11453E+07  8.94427E-01 -1.00000E+00  4.09455E-01
       3    -1     0     0   501     0  0.000000000E+00  0.000000000E+00  1.532676384E+02  1.532676384E+02  0.000000000E+00  0.00000E+00  9.000E+00
      21    -1     0     0   502   501  0.000000000E+00  0.000000000E+00 -1.709753095E-02  1.709753095E-02  0.000000000E+00  0.00000E+00  9.000E+00
      23     2     1     2     0     0  5.738363299E-01 -9.171948487E-02  1.444849600E+02  1.444999133E+02  1.995890363E+00  0.00000E+00  9.000E+00
      11     1     3     3     0     0  1.322219001E+00 -2.683010119E-02  9.690476796E+01  9.691379178E+01  5.110000000E-04  0.00000E+00  9.000E+00
     -11     1     3     3     0     0 -7.483826712E-01 -6.488938368E-02  4.758019202E+01  4.758612151E+01  5.110000000E-04  0.00000E+00  9.000E+00
       3     1     1     2   502     0 -5.738363299E-01  9.171948487E-02  8.765580839E+00  8.784822596E+00  0.000000000E+00  0.00000E+00  9.000E+00
#rwgt            1          26  -950217.15020550601                3     1580513           0
<weights>
-.11145E+08
-.13156E+08
-.86891E+07
-.15998E+08
-.69624E+07
-.91656E+07
-.13909E+08
-.11167E+08
-.11124E+08
-.10872E+08
-.10857E+08
-.10983E+08
-.11032E+08
-.10883E+08
-.10868E+08
-.11215E+08
-.11202E+08
-.11419E+08
-.11455E+08
-.11444E+08
-.11399E+08
-.11452E+08
-.11471E+08
-.11376E+08
-.11301E+08
-.11269E+08
-.11312E+08
-.11397E+08
-.11339E+08
-.11435E+08
-.11464E+08
-.11180E+08
-.11206E+08
-.11135E+08
-.11177E+08
-.11201E+08
-.11106E+08
-.11143E+08
-.11078E+08
-.11161E+08
-.11132E+08
-.11178E+08
-.11111E+08
-.11455E+08
-.10861E+08
</weights>
</event>
<event>
      6  10001 -1.11453E+07  8.94427E-01 -1.00000E+00  5.92967E-01
      21    -1     0     0   502   501  0.000000000E+00  0.000000000E+00  2.456354272E-02  2.456354272E-02  0.000000000E+00  0.00000E+00  9.000E+00
      -4    -1     0     0     0   502  0.000000000E+00  0.000000000E+00 -3.924012852E+01  3.924012852E+01  0.000000000E+00  0.00000E+00  9.000E+00
      23     2     1     2     0     0  2.802043271E-01 -9.914219885E-02 -2.065317825E+01  2.069992585E+01  1.358239520E+00  0.00000E+00  9.000E+00
      11     1     3     3     0     0  8.302008320E-01 -9.818759792E-02 -1.163918015E+01  1.166916403E+01  5.110000000E-04  0.00000E+00  9.000E+00
     -11     1     3     3     0     0 -5.499965049E-01 -9.546009299E-04 -9.013998097E+00  9.030761818E+00  5.110000000E-04  0.00000E+00  9.000E+00
      -4     1     1     2     0   501 -2.802043271E-01  9.914219885E-02 -1.856238673E+01  1.856476621E+01  0.000000000E+00  0.00000E+00  9.000E+00
#rwgt            1          12  -2429028.4506465173                3     1582731           0
<weights>
-.11148E+08
-.13084E+08
-.90459E+07
-.15965E+08
-.72503E+07
-.91335E+07
-.13909E+08
-.11244E+08
-.11054E+08
-.10916E+08
-.11006E+08
-.10965E+08
-.11156E+08
-.10990E+08
-.11009E+08
-.11190E+08
-.11124E+08
-.11272E+08
-.11279E+08
-.11272E+08
-.11267E+08
-.11271E+08
-.11308E+08
-.11161E+08
-.11321E+08
-.11289E+08
-.11070E+08
-.11257E+08
-.11161E+08
-.11209E+08
-.11280E+08
-.11094E+08
-.11245E+08
-.11173E+08
-.11124E+08
-.11315E+08
-.10999E+08
-.10777E+08
-.11522E+08
-.11075E+08
-.11216E+08
-.11129E+08
-.11170E+08
-.11326E+08
-.10968E+08
</weights>
</event>
<event>
      6  10001 -1.11453E+07  8.94427E-01 -1.00000E+00  4.61800E-01
      21    -1     0     0   502   501  0.000000000E+00  0.000000000E+00  2.454266462E-02  2.454266462E-02  0.000000000E+00  0.00000E+00  9.000E+00
      -4    -1     0     0     0   502  0.000000000E+00  0.000000000E+00 -4.383972684E+01  4.383972684E+01  0.000000000E+00  0.00000E+00  9.000E+00
      23     2     1     2     0     0  3.982409312E-02 -6.782448465E-01 -1.984645353E+01  1.988591154E+01  1.051740436E+00  0.00000E+00  9.000E+00
      11     1     3     3     0     0  7.682863989E-02 -2.893887290E-01 -1.250120206E+00  1.285476280E+00  5.110000000E-04  0.00000E+00  9.000E+00
     -11     1     3     3     0     0 -3.700454677E-02 -3.888561175E-01 -1.859633333E+01  1.860043526E+01  5.110000000E-04  0.00000E+00  9.000E+00
      -4     1     1     2     0   501 -3.982409312E-02  6.782448465E-01 -2.396873064E+01  2.397835796E+01  0.000000000E+00  0.00000E+00  9.000E+00
#rwgt            1          12  -3098354.9203180061                3     1583489           0
<weights>
-.11145E+08
-.13069E+08
-.90958E+07
-.15884E+08
-.72881E+07
-.91702E+07
-.13910E+08
-.11240E+08
-.11052E+08
-.10924E+08
-.11017E+08
-.10964E+08
-.11164E+08
-.11002E+08
-.11021E+08
-.11185E+08
-.11113E+08
-.11254E+08
-.11255E+08
-.11249E+08
-.11251E+08
-.11252E+08
-.11283E+08
-.11151E+08
-.11304E+08
-.11273E+08
-.11072E+08
-.11239E+08
-.11147E+08
-.11188E+08
-.11259E+08
-.11087E+08
-.11241E+08
-.11172E+08
-.11118E+08
-.11312E+08
-.10996E+08
-.10765E+08
-.11540E+08
-.11065E+08
-.11220E+08
-.11122E+08
-.11170E+08
-.11307E+08
-.10979E+08
</weights>
</event>
<event>
      6  10001 -1.11453E+07  8.94427E-01 -1.00000E+00  4.09764E-01
      21    -1     0     0   502   501  0.000000000E+00  0.000000000E+00  3.592201360E-03  3.592201360E-03  0.000000000E+00  0.00000E+00  9.000E+00
      -1    -1     0     0     0   502  0.000000000E+00  0.000000000E+00 -3.321406956E+02  3.321406956E+02  0.000000000E+00  0.00000E+00  9.000E+00
      23     2     1     2     0     0 -2.019687983E-01  6.049618927E-01 -2.880186395E+02  2.880212142E+02  1.037467942E+00  0.00000E+00  9.000E+00
      11     1     3     3     0     0  2.887464878E-02 -2.898323372E-01 -7.716276351E+01  7.716331323E+01  5.110000000E-04  0.00000E+00  9.000E+00
     -11     1     3     3     0     0 -2.308434470E-01  8.947942299E-01 -2.108558760E+02  2.108579010E+02  5.110000000E-04  0.00000E+00  9.000E+00
      -1     1     1     2     0   501  2.019687983E-01 -6.049618927E-01 -4.411846384E+01  4.412307358E+01  0.000000000E+00  0.00000E+00  9.000E+00
#rwgt            1          15  -733101.86350623646                3     1586029           0
<weights>
-.11145E+08
-.11274E+08
-.10879E+08
-.13702E+08
-.87167E+07
-.91702E+07
-.13910E+08
-.10983E+08
-.11298E+08
-.11312E+08
-.11297E+08
-.11132E+08
-.11207E+08
-.11270E+08
-.11292E+08
-.11033E+08
-.11219E+08
-.11087E+08
-.10944E+08
-.10921E+08
-.11104E+08
-.10985E+08
-.11044E+08
-.11084E+08
-.11064E+08
-.11003E+08
-.11181E+08
-.10986E+08
-.10994E+08
-.11022E+08
-.11033E+08
-.11323E+08
-.10919E+08
-.11371E+08
-.10926E+08
-.11365E+08
-.10924E+08
-.11443E+08
-.10828E+08
-.11184E+08
-.11088E+08
-.11379E+08
-.10894E+08
-.10977E+08
-.11310E+08
</weights>
</event>
<event>
      6  10001 -1.11453E+07  8.94427E-01 -1.00000E+00  6.39588E-01
       2    -1     0     0   501     0  0.000000000E+00  0.000000000E+00  4.055345515E+02  4.055345515E+02  0.000000000E+00  0.00000E+00  9.000E+00
      21    -1     0     0   502   501  0.000000000E+00  0.000000000E+00 -8.165801540E-03  8.165801540E-03  0.000000000E+00  0.00000E+00  9.000E+00
      23     2     1     2     0     0 -3.074600084E-01 -2.448410997E-01  3.889094867E+02  3.889211707E+02  2.988929769E+00  0.00000E+00  9.000E+00
      11     1     3     3     0     0 -1.628109756E-01 -4.146055528E-01  8.532442970E+00  8.544061591E+00  5.110000000E-04  0.00000E+00  9.000E+00
     -11     1     3     3     0     0 -1.446490328E-01  1.697644531E-01  3.803770437E+02  3.803771091E+02  5.110000000E-04  0.00000E+00  9.000E+00
       2     1     1     2   502     0  3.074600084E-01  2.448410997E-01  1.661689901E+01  1.662154661E+01  0.000000000E+00  0.00000E+00  9.000E+00
#rwgt            1          24  -16163139.305857526                3     1586374           0
<weights>
-.11145E+08
-.12006E+08
-.10069E+08
-.14604E+08
-.80680E+07
-.91627E+07
-.13909E+08
-.11176E+08
-.11115E+08
-.10829E+08
-.10822E+08
-.10964E+08
-.11011E+08
-.10848E+08
-.10832E+08
-.11225E+08
-.11206E+08
-.11454E+08
-.11492E+08
-.11481E+08
-.11431E+08
-.11491E+08
-.11512E+08
-.11395E+08
-.11329E+08
-.11286E+08
-.11319E+08
-.11426E+08
-.11364E+08
-.11468E+08
-.11503E+08
-.11181E+08
-.11216E+08
-.11138E+08
-.11176E+08
-.11212E+08
-.11097E+08
-.11121E+08
-.11095E+08
-.11164E+08
-.11130E+08
-.11183E+08
-.11105E+08
-.11497E+08
-.10822E+08
</weights>
</event>
<event>
      7  10001  1.11453E+07  1.26788E+00 -1.00000E+00  4.78605E-01
      21    -1     0     0   502   511  0.000000000E+00  0.000000000E+00  1.001993240E+02  1.001993240E+02  0.000000000E+00  0.00000E+00  9.000E+00
      -1    -1     0     0     0   502  0.000000000E+00  0.000000000E+00 -5.177773542E-01  5.177773542E-01  0.000000000E+00  0.00000E+00  9.000E+00
      23     2     1     2     0     0 -2.364390099E-03 -5.877365331E-01  3.295200580E+00  3.686537177E+00  1.544917366E+00  0.00000E+00  9.000E+00
      11     1     3     3     0     0  4.383519846E-01 -9.061880651E-01  2.694004751E+00  2.875933089E+00  5.110000000E-04  0.00000E+00  9.000E+00
     -11     1     3     3     0     0 -4.407163747E-01  3.184515320E-01  6.011958293E-01  8.106040880E-01  5.110000000E-04  0.00000E+00  9.000E+00
      -1     1     1     2     0   501 -5.372792092E-01 -5.595693335E-01  1.552694606E-01  7.911355087E-01  0.000000000E+00  0.00000E+00  9.000E+00
      21     1     1     2   501   511  5.396435993E-01  1.147305867E+00  9.623107661E+01  9.623942867E+01  1.348699152E-06  0.00000E+00  9.000E+00
#rwgt            1          15   23343.908630671416                3     1587289           0
<weights>
0.11145E+08
0.15395E+08
0.73372E+07
0.10693E+08
0.10501E+08
0.14292E+08
0.60479E+07
0.10726E+08
0.11642E+08
0.10767E+08
0.10677E+08
0.10974E+08
0.10875E+08
0.10757E+08
0.10698E+08
0.11143E+08
0.11418E+08
0.11618E+08
0.11579E+08
0.11551E+08
0.11596E+08
0.11663E+08
0.11624E+08
0.11625E+08
0.11248E+08
0.11431E+08
0.11219E+08
0.11632E+08
0.11369E+08
0.11669E+08
0.11642E+08
0.11158E+08
0.11289E+08
0.11141E+08
0.11197E+08
0.10810E+08
0.11540E+08
0.11317E+08
0.10905E+08
0.11200E+08
0.11092E+08
0.11265E+08
0.11019E+08
0.11622E+08
0.10715E+08
</weights>
</event>
<event>
      7  10001  1.11453E+07  1.77297E+00 -1.00000E+00  3.77883E-01
      21    -1     0     0   502   501  0.000000000E+00  0.000000000E+00  2.813021257E+01  2.813021257E+01  0.000000000E+00  0.00000E+00  9.000E+00
      -2    -1     0     0     0   502  0.000000000E+00  0.000000000E+00 -1.459547718E-01  1.459547718E-01  0.000000000E+00  0.00000E+00  9.000E+00
      23     2     1     2     0     0 -8.332778717E-02 -3.373774111E-01  3.578456520E+00  3.857131874E+00  1.396906651E+00  0.00000E+00  9.000E+00
      11     1     3     3     0     0 -4.280528111E-01 -6.998878459E-01  2.902377531E+00  3.016101424E+00  5.110000000E-04  0.00000E+00  9.000E+00
     -11     1     3     3     0     0  3.447250239E-01  3.625104348E-01  6.760789885E-01  8.410304497E-01  5.110000000E-04  0.00000E+00  9.000E+00
      -2     1     1     2     0   511  2.566624473E-02  2.497510126E-01  2.420902853E+00  2.433886798E+00  0.000000000E+00  0.00000E+00  9.000E+00
      21     1     1     2   511   501  5.766154244E-02  8.762639853E-02  2.198489843E+01  2.198514867E+01  0.000000000E+00  0.00000E+00  9.000E+00
#rwgt            2         160   1185057.4965786997                3     1596957           0
<weights>
0.11145E+08
0.11267E+08
0.10801E+08
0.13693E+08
0.86546E+07
0.91702E+07
0.13910E+08
0.11061E+08
0.11259E+08
0.10821E+08
0.10797E+08
0.10968E+08
0.10985E+08
0.10834E+08
0.10809E+08
0.11206E+08
0.11251E+08
0.11485E+08
0.11499E+08
0.11485E+08
0.11463E+08
0.11521E+08
0.11528E+08
0.11432E+08
0.11310E+08
0.11319E+08
0.11251E+08
0.11466E+08
0.11356E+08
0.11504E+08
0.11525E+08
0.11173E+08
0.11233E+08
0.11138E+08
0.11181E+08
0.11121E+08
0.11199E+08
0.11157E+08
0.11062E+08
0.11169E+08
0.11124E+08
0.11200E+08
0.11088E+08
0.11517E+08
0.10804E+08
</weights>
</event>
<event>
      6  10001 -1.11453E+07  8.94427E-01 -1.00000E+00  1.52487E-01
      -4    -1     0     0     0   502  0.000000000E+00  0.000000000E+00  4.572738394E+01  4.572738394E+01  0.000000000E+00  0.00000E+00  9.000E+00
      21    -1     0     0   502   501  0.000000000E+00  0.000000000E+00 -2.199703948E-02  2.199703948E-02  0.000000000E+00  0.00000E+00  9.000E+00
      23     2     1     2     0     0  3.996936982E-01  1.104032474E-01  4.017643439E+01  4.020490086E+01  1.454726419E+00  0.00000E+00  9.000E+00
      11     1     3     3     0     0  7.893828202E-01 -3.576470675E-01  1.907037928E+01  1.909006032E+01  5.110000000E-04  0.00000E+00  9.000E+00
     -11     1     3     3     0     0 -3.896891220E-01  4.680503149E-01  2.110605511E+01  2.111484054E+01  5.110000000E-04  0.00000E+00  9.000E+00
      -4     1     1     2     0   501 -3.996936982E-01 -1.104032474E-01  5.528952510E+00  5.544480118E+00  0.000000000E+00  0.00000E+00  9.000E+00
#rwgt            1           3  -2913515.1508804751                3     1596980           0
<weights>
-.11145E+08
-.13130E+08
-.90060E+07
-.15962E+08
-.72161E+07
-.91689E+07
-.13910E+08
-.11171E+08
-.11121E+08
-.10822E+08
-.10811E+08
-.10961E+08
-.11005E+08
-.10840E+08
-.10822E+08
-.11226E+08
-.11212E+08
-.11464E+08
-.11506E+08
-.11494E+08
-.11440E+08
-.11504E+08
-.11523E+08
-.11414E+08
-.11329E+08
-.11287E+08
-.11355E+08
-.11437E+08
-.11373E+08
-.11481E+08
-.11516E+08
-.11184E+08
-.11217E+08
-.11138E+08
-.11178E+08
-.11208E+08
-.11102E+08
-.11134E+08
-.11082E+08
-.11167E+08
-.11127E+08
-.11185E+08
-.11103E+08
-.11507E+08
-.10812E+08
</weights>
</event>
<event>
      7  10001  1.11453E+07  2.17461E+00 -1.00000E+00  3.39102E-01
      -1    -1     0     0     0   502  0.000000000E+00  0.000000000E+00  2.838580606E+00  2.838580606E+00  0.000000000E+00  0.00000E+00  9.000E+00
      21    -1     0     0   502   501  0.000000000E+00  0.000000000E+00 -1.682786779E+00  1.682786779E+00  0.000000000E+00  0.00000E+00  9.000E+00
      23     2     1     2     0     0  1.969016591E-01 -4.165259692E-01 -1.110400221E+00  1.622801636E+00  1.090060710E+00  0.00000E+00  9.000E+00
      11     1     3     3     0     0 -1.995064992E-01 -2.512110505E-01  1.019613297E-01  3.366098766E-01  5.110000000E-04  0.00000E+00  9.000E+00
     -11     1     3     3     0     0  3.964081583E-01 -1.653149186E-01 -1.212361551E+00  1.286191759E+00  5.110000000E-04  0.00000E+00  9.000E+00
      -1     1     1     2     0   511  6.864564657E-01 -2.168993313E-01  8.761973523E-01  1.134014814E+00  0.000000000E+00  0.00000E+00  9.000E+00
      21     1     1     2   511   501 -8.833581248E-01  6.334253004E-01  1.389996695E+00  1.764550935E+00  1.032382731E-07  0.00000E+00  9.000E+00
#rwgt            1           9   25661.736465814800                3     1598383           0
<weights>
0.11152E+08
0.13260E+08
0.89120E+07
0.12660E+08
0.92774E+07
0.11457E+08
0.10416E+08
0.11202E+08
0.11097E+08
0.10752E+08
0.10719E+08
0.10927E+08
0.10971E+08
0.10758E+08
0.10733E+08
0.11247E+08
0.11270E+08
0.11577E+08
0.11603E+08
0.11598E+08
0.11544E+08
0.11625E+08
0.11644E+08
0.11445E+08
0.11411E+08
0.11387E+08
0.11183E+08
0.11563E+08
0.11434E+08
0.11607E+08
0.11638E+08
0.11219E+08
0.11230E+08
0.11133E+08
0.11205E+08
0.11242E+08
0.11083E+08
0.11209E+08
0.10988E+08
0.11202E+08
0.11109E+08
0.11196E+08
0.11105E+08
0.11618E+08
0.10727E+08
</weights>
</event>
<event>
      6  10001 -1.11453E+07  8.94427E-01 -1.00000E+00  1.84566E-01
      21    -1     0     0   502   501  0.000000000E+00  0.000000000E+00  1.558327349E-02  1.558327349E-02  0.000000000E+00  0.00000E+00  9.000E+00
       1    -1     0     0   501     0  0.000000000E+00  0.000000000E+00 -4.106155084E+01  4.106155084E+01  0.000000000E+00  0.00000E+00  9.000E+00
      23     2     1     2     0     0 -2.982966929E-01 -8.930468982E-03 -3.744732909E+01  3.746614262E+01  1.149054522E+00  0.00000E+00  9.000E+00
      11     1     3     3     0     0 -4.483454740E-01  4.911792913E-01 -2.103998396E+01  2.105049159E+01  5.110000000E-04  0.00000E+00  9.000E+00
     -11     1     3     3     0     0  1.500487811E-01 -5.001097603E-01 -1.640734513E+01  1.641565104E+01  5.110000000E-04  0.00000E+00  9.000E+00
       1     1     1     2   502     0  2.982966929E-01  8.930468982E-03 -3.598638477E+00  3.610991493E+00  0.000000000E+00  0.00000E+00  9.000E+00
#rwgt            1          16  -1360533.3514657861                3     1604709           0
<weights>
-.11145E+08
-.12543E+08
-.96027E+07
-.15245E+08
-.76942E+07
-.91702E+07
-.13910E+08
-.11214E+08
-.11075E+08
-.11049E+08
-.11065E+08
-.10999E+08
-.11164E+08
-.11074E+08
-.11083E+08
-.10882E+08
-.11408E+08
-.11143E+08
-.11201E+08
-.11175E+08
-.11138E+08
-.11207E+08
-.11204E+08
-.11198E+08
-.11167E+08
-.11244E+08
-.11070E+08
-.11143E+08
-.11102E+08
-.11171E+08
-.11201E+08
-.11100E+08
-.11206E+08
-.11105E+08
-.11128E+08
-.11066E+08
-.11221E+08
-.10972E+08
-.11321E+08
-.11128E+08
-.11152E+08
-.11221E+08
-.11064E+08
-.11222E+08
-.11067E+08
</weights>
</event>
<event>
      7  10001  1.11453E+07  3.32197E+00 -1.00000E+00  2.80096E-01
      -2    -1     0     0     0   502  0.000000000E+00  0.000000000E+00  2.158819017E+01  2.158819017E+01  0.000000000E+00  0.00000E+00  9.000E+00
      21    -1     0     0   502   501  0.000000000E+00  0.000000000E+00 -3.394433760E-01  3.394433760E-01  0.000000000E+00  0.00000E+00  9.000E+00
      23     2     1     2     0     0  1.605876183E-01  1.698592851E-01  1.656958885E+01  1.682225848E+01  2.895248750E+00  0.00000E+00  9.000E+00
      11     1     3     3     0     0  6.201738451E-01 -1.039172498E+00  1.234310428E+01  1.240228683E+01  5.110000000E-04  0.00000E+00  9.000E+00
     -11     1     3     3     0     0 -4.595862268E-01  1.209031783E+00  4.226484569E+00  4.419971654E+00  5.110000000E-04  0.00000E+00  9.000E+00
      -2     1     1     2     0   511 -8.654783114E-02  3.496377283E-01  4.550965439E+00  4.565196983E+00  0.000000000E+00  0.00000E+00  9.000E+00
      21     1     1     2   511   501 -7.403978715E-02 -5.194970135E-01  1.281925050E-01  5.401780775E-01  6.671806681E-08  0.00000E+00  9.000E+00
#rwgt            1           7   1047324.0750409061                3     1606222           0
<weights>
0.11145E+08
0.16228E+08
0.59133E+07
0.12223E+08
0.94712E+07
0.14172E+08
0.62323E+07
0.11139E+08
0.11150E+08
0.10569E+08
0.10462E+08
0.10856E+08
0.10820E+08
0.10544E+08
0.10485E+08
0.11270E+08
0.11385E+08
0.11807E+08
0.11905E+08
0.11886E+08
0.11757E+08
0.11910E+08
0.11913E+08
0.11771E+08
0.11441E+08
0.11436E+08
0.11579E+08
0.11803E+08
0.11652E+08
0.11914E+08
0.11927E+08
0.11287E+08
0.11237E+08
0.11111E+08
0.11240E+08
0.11179E+08
0.11145E+08
0.11469E+08
0.10684E+08
0.11274E+08
0.11034E+08
0.11234E+08
0.11052E+08
0.11867E+08
0.10496E+08
</weights>
</event>
<event>
      6  10001  1.11453E+07  8.94427E-01 -1.00000E+00  6.01957E-01
      21    -1     0     0   502   501  0.000000000E+00  0.000000000E+00  8.327110820E-01  8.327110820E-01  0.000000000E+00  0.00000E+00  9.000E+00
      -4    -1     0     0     0   502  0.000000000E+00  0.000000000E+00 -2.427045105E+00  2.427045105E+00  0.000000000E+00  0.00000E+00  9.000E+00
      23     2     1     2     0     0 -2.965394251E-01 -2.144732992E-02 -2.232720144E+00  2.555531465E+00  1.207189384E+00  0.00000E+00  9.000E+00
      11     1     3     3     0     0 -4.761946781E-01  1.447660778E-01 -2.255463255E+00  2.309725816E+00  5.110000000E-04  0.00000E+00  9.000E+00
     -11     1     3     3     0     0  1.796552530E-01 -1.662134077E-01  2.274311110E-02  2.458056490E-01  5.110000000E-04  0.00000E+00  9.000E+00
      -4     1     1     2     0   501  2.965394251E-01  2.144732992E-02  6.383861214E-01  7.042247216E-01  0.000000000E+00  0.00000E+00  9.000E+00
#rwgt            1          12   655425.21279361949                3     1653158           0
<weights>
0.11145E+08
0.15878E+08
0.73975E+07
0.90569E+07
0.11619E+08
0.15614E+08
0.40181E+07
0.11205E+08
0.11077E+08
0.10587E+08
0.10496E+08
0.10837E+08
0.10874E+08
0.10573E+08
0.10519E+08
0.11276E+08
0.11366E+08
0.11804E+08
0.11794E+08
0.11795E+08
0.11749E+08
0.11873E+08
0.11864E+08
0.11577E+08
0.11525E+08
0.11552E+08
0.11079E+08
0.11809E+08
0.11565E+08
0.11869E+08
0.11883E+08
0.11280E+08
0.11231E+08
0.11097E+08
0.11249E+08
0.11268E+08
0.11050E+08
0.11397E+08
0.10741E+08
0.11258E+08
0.11050E+08
0.11205E+08
0.11084E+08
0.11835E+08
0.10523E+08
</weights>
</event>
<event>
      6  10001  1.11453E+07  8.94427E-01 -1.00000E+00  5.66767E-01
       4    -1     0     0   501     0  0.000000000E+00  0.000000000E+00  8.614275242E-02  8.614275242E-02  0.000000000E+00  0.00000E+00  9.000E+00
      -4    -1     0     0     0   502  0.000000000E+00  0.000000000E+00 -1.384623713E+01  1.384623713E+01  0.000000000E+00  0.00000E+00  9.000E+00
      23     2     1     2     0     0 -4.507761624E-01  3.755811301E-01 -1.102935232E+01  1.113931481E+01  1.446879893E+00  0.00000E+00  9.000E+00
      11     1     3     3     0     0  3.903368935E-01 -1.338869662E-01 -6.033714845E+00  6.047809827E+00  5.110000000E-04  0.00000E+00  9.000E+00
     -11     1     3     3     0     0 -8.411130559E-01  5.094680963E-01 -4.995637474E+00  5.091504979E+00  5.110000000E-04  0.00000E+00  9.000E+00
      21     1     1     2   501   502  4.507761624E-01 -3.755811301E-01 -2.730742059E+00  2.793065078E+00  5.161913656E-08  0.00000E+00  9.000E+00
#rwgt            1          27   174354.67850527956                3     1664115           0
<weights>
0.11145E+08
0.15416E+08
0.74416E+07
0.11066E+08
0.10049E+08
0.13900E+08
0.66494E+07
0.11277E+08
0.11008E+08
0.10559E+08
0.10581E+08
0.10820E+08
0.10916E+08
0.10578E+08
0.10584E+08
0.11251E+08
0.11334E+08
0.11703E+08
0.11788E+08
0.11786E+08
0.11660E+08
0.11749E+08
0.11861E+08
0.11406E+08
0.11646E+08
0.11622E+08
0.10959E+08
0.11710E+08
0.11445E+08
0.11697E+08
0.11777E+08
0.11187E+08
0.11291E+08
0.11138E+08
0.11187E+08
0.11367E+08
0.10954E+08
0.10971E+08
0.11081E+08
0.11206E+08
0.11094E+08
0.11182E+08
0.11108E+08
0.11782E+08
0.10562E+08
</weights>
</event>
<event>
      7  10001  1.11453E+07  2.15026E+00 -1.00000E+00  3.41023E-01
       2    -1     0     0   501     0  0.000000000E+00  0.000000000E+00  1.225485908E+03  1.225485908E+03  0.000000000E+00  0.00000E+00  9.000E+00
      21    -1     0     0   502   511  0.000000000E+00  0.000000000E+00 -3.310128879E+01  3.310128879E+01  0.000000000E+00  0.00000E+00  9.000E+00
      23     2     1     2     0     0 -3.387152683E-01  4.304847407E-01  1.221702384E+03  1.221711756E+03  4.754140100E+00  0.00000E+00  9.000E+00
      11     1     3     3     0     0 -2.208105637E+00 -6.565437376E-01  4.083134125E+02  4.083199108E+02  5.110000000E-04  0.00000E+00  9.000E+00
     -11     1     3     3     0     0  1.869390369E+00  1.087028478E+00  8.133889711E+02  8.133918456E+02  5.110000000E-04  0.00000E+00  9.000E+00
       2     1     1     2   502     0 -1.562959978E+00 -1.434096659E+00  3.443114205E+00  4.044071284E+00  0.000000000E+00  0.00000E+00  9.000E+00
      21     1     1     2   501   511  1.901675246E+00  1.003611918E+00 -3.276087873E+01  3.283136886E+01  1.784161275E-06  0.00000E+00  9.000E+00
#rwgt            1          24   773702283.20516515                3     1667180           0
<weights>
0.11145E+08
0.10882E+08
0.11158E+08
0.12339E+08
0.97278E+07
0.98635E+07
0.12846E+08
0.11179E+08
0.11110E+08
0.10811E+08
0.10795E+08
0.10955E+08
0.10999E+08
0.10826E+08
0.10807E+08
0.11231E+08
0.11217E+08
0.11483E+08
0.11514E+08
0.11504E+08
0.11458E+08
0.11523E+08
0.11539E+08
0.11410E+08
0.11340E+08
0.11300E+08
0.11284E+08
0.11456E+08
0.11384E+08
0.11503E+08
0.11535E+08
0.11191E+08
0.11216E+08
0.11135E+08
0.11182E+08
0.11213E+08
0.11096E+08
0.11154E+08
0.11061E+08
0.11172E+08
0.11123E+08
0.11186E+08
0.11102E+08
0.11524E+08
0.10798E+08
</weights>
</event>
<event>
      7  10001  1.11453E+07  1.66629E+00 -1.00000E+00  3.91585E-01
      -2    -1     0     0     0   502  0.000000000E+00  0.000000000E+00  1.751520065E+02  1.751520065E+02  0.000000000E+00  0.00000E+00  9.000E+00
      21    -1     0     0   502   501  0.000000000E+00  0.000000000E+00 -3.577934662E-01  3.577934662E-01  0.000000000E+00  0.00000E+00  9.000E+00
      23     2     1     2     0     0 -6.327097006E-01 -3.420125993E-01  1.723048343E+02  1.723125826E+02  1.467278202E+00  0.00000E+00  9.000E+00
      11     1     3     3     0     0 -1.011505421E+00 -3.809746206E-01  1.539729169E+02  1.539767107E+02  5.110000000E-04  0.00000E+00  9.000E+00
     -11     1     3     3     0     0  3.787957208E-01  3.896202122E-02  1.833191740E+01  1.833587195E+01  5.110000000E-04  0.00000E+00  9.000E+00
      -2     1     1     2     0   511  9.324997635E-01  9.166027170E-01  1.980535646E+00  2.373233616E+00  0.000000000E+00  0.00000E+00  9.000E+00
      21     1     1     2   511   501 -2.997900629E-01 -5.745901177E-01  5.088430149E-01  8.239836764E-01  7.916570579E-07  0.00000E+00  9.000E+00
#rwgt            1           7   20464540.399342604                3     1857344           0
<weights>
0.11145E+08
0.12225E+08
0.96577E+07
0.13137E+08
0.90041E+07
0.10402E+08
0.12019E+08
0.11172E+08
0.11116E+08
0.10768E+08
0.10734E+08
0.10937E+08
0.10967E+08
0.10775E+08
0.10748E+08
0.11238E+08
0.11248E+08
0.11543E+08
0.11585E+08
0.11575E+08
0.11513E+08
0.11594E+08
0.11608E+08
0.11474E+08
0.11359E+08
0.11327E+08
0.11328E+08
0.11521E+08
0.11433E+08
0.11579E+08
0.11607E+08
0.11209E+08
0.11219E+08
0.11130E+08
0.11194E+08
0.11207E+08
0.11105E+08
0.11213E+08
0.10985E+08
0.11191E+08
0.11106E+08
0.11195E+08
0.11094E+08
0.11587E+08
0.10743E+08
</weights>
</event>
<event>
      6  10001 -1.11453E+07  8.94427E-01 -1.00000E+00  4.42032E-01
       2    -1     0     0   501     0  0.000000000E+00  0.000000000E+00  2.101663001E+02  2.101663001E+02  0.000000000E+00  0.00000E+00  9.000E+00
      21    -1     0     0   502   501  0.000000000E+00  0.000000000E+00 -5.801236362E-03  5.801236362E-03  0.000000000E+00  0.00000E+00  9.000E+00
      23     2     1     2     0     0  1.095200829E-01 -4.908052828E-01  8.639400203E+01  8.640458289E+01  1.255178378E+00  0.00000E+00  9.000E+00
      11     1     3     3     0     0  3.409985578E-01 -8.521046416E-01  5.519487020E+01  5.520250048E+01  5.110000000E-04  0.00000E+00  9.000E+00
     -11     1     3     3     0     0 -2.314784749E-01  3.612993589E-01  3.119913183E+01  3.120208241E+01  5.110000000E-04  0.00000E+00  9.000E+00
       2     1     1     2   502     0 -1.095200829E-01  4.908052828E-01  1.237664968E+02  1.237675185E+02  0.000000000E+00  0.00000E+00  9.000E+00
#rwgt            1          24  -6455225.8321751673                3     1937851           0
<weights>
-.11145E+08
-.12128E+08
-.10025E+08
-.14744E+08
-.80327E+07
-.91686E+07
-.13910E+08
-.11185E+08
-.11105E+08
-.10856E+08
-.10865E+08
-.10975E+08
-.11034E+08
-.10881E+08
-.10873E+08
-.11220E+08
-.11183E+08
-.11412E+08
-.11444E+08
-.11435E+08
-.11392E+08
-.11440E+08
-.11467E+08
-.11343E+08
-.11323E+08
-.11270E+08
-.11272E+08
-.11380E+08
-.11328E+08
-.11412E+08
-.11453E+08
-.11166E+08
-.11217E+08
-.11143E+08
-.11166E+08
-.11221E+08
-.11087E+08
-.11067E+08
-.11157E+08
-.11150E+08
-.11142E+08
-.11177E+08
-.11112E+08
-.11454E+08
-.10859E+08
</weights>
</event>
<event>
      7  10001  1.11453E+07  1.40738E+01 -1.00000E+00  1.79740E-01
      21    -1     0     0   502   501  0.000000000E+00  0.000000000E+00  1.003892641E+00  1.003892641E+00  0.000000000E+00  0.00000E+00  9.000E+00
      -4    -1     0     0     0   502  0.000000000E+00  0.000000000E+00 -5.923134643E+01  5.923134643E+01  0.000000000E+00  0.00000E+00  9.000E+00
      23     2     1     2     0     0  5.557720973E-01 -1.604951711E+00 -2.383024289E+01  2.396426989E+01  1.876433428E+00  0.00000E+00  9.000E+00
      11     1     3     3     0     0 -2.489406052E-02  3.969139708E-01 -5.875346127E+00  5.888790435E+00  5.110000000E-04  0.00000E+00  9.000E+00
     -11     1     3     3     0     0  5.806661578E-01 -2.001865682E+00 -1.795489677E+01  1.807547946E+01  5.110000000E-04  0.00000E+00  9.000E+00
      -4     1     1     2     0   511 -2.768002502E+00 -1.385494337E+00 -3.123708068E+01  3.139007235E+01  0.000000000E+00  0.00000E+00  9.000E+00
      21     1     1     2   511   501  2.212230405E+00  2.990446047E+00 -3.160130212E+00  4.880896832E+00  2.731427965E-07  0.00000E+00  9.000E+00
#rwgt            2         154   1671005.5783403912                3     1941258           0
<weights>
0.11145E+08
0.10927E+08
0.11124E+08
0.13280E+08
0.89133E+07
0.91702E+07
0.13910E+08
0.11218E+08
0.11073E+08
0.11008E+08
0.11091E+08
0.10988E+08
0.11221E+08
0.11091E+08
0.11101E+08
0.11172E+08
0.11080E+08
0.11177E+08
0.11147E+08
0.11140E+08
0.11181E+08
0.11169E+08
0.11164E+08
0.11127E+08
0.11209E+08
0.11198E+08
0.11103E+08
0.11166E+08
0.11099E+08
0.11112E+08
0.11169E+08
0.11085E+08
0.11216E+08
0.11169E+08
0.11117E+08
0.11288E+08
0.11015E+08
0.10787E+08
0.11554E+08
0.11039E+08
0.11244E+08
0.11107E+08
0.11186E+08
0.11217E+08
0.11059E+08
</weights>
</event>
<event>
      7  10001  1.11453E+07  8.94427E-01 -1.00000E+00  6.07649E-01
       5    -1     0     0   501     0  0.000000000E+00  0.000000000E+00  5.501482854E-01  5.501482854E-01  0.000000000E+00  0.00000E+00  9.000E+00
      21    -1     0     0   502   501  0.000000000E+00  0.000000000E+00 -1.212953121E+00  1.212953121E+00  0.000000000E+00  0.00000E+00  9.000E+00
      23     2     1     2     0     0 -1.679457682E-01  1.452118889E-01 -1.864335023E-01  1.123298143E+00  1.085241445E+00  0.00000E+00  9.000E+00
      11     1     3     3     0     0 -8.015000511E-02  4.482084321E-01 -5.015605690E-01  6.774054085E-01  5.110000000E-04  0.00000E+00  9.000E+00
     -11     1     3     3     0     0 -8.779576312E-02 -3.029965432E-01  3.151270667E-01  4.458927343E-01  5.110000000E-04  0.00000E+00  9.000E+00
       5     1     1     2   512     0  1.600048363E-01  1.159480709E-02 -2.557870867E-02  1.624507850E-01  0.000000000E+00  0.00000E+00  9.000E+00
      21     1     1     2   502   512  7.940931901E-03 -1.568066960E-01 -4.507926246E-01  4.773524785E-01  1.053671213E-08  0.00000E+00  9.000E+00
#rwgt            2         338   1135040.8823735809                3     1942782           0
<weights>
0.11145E+08
0.12819E+08
0.90507E+07
0.15580E+08
0.72519E+07
0.91702E+07
0.13910E+08
0.11198E+08
0.11090E+08
0.10853E+08
0.10859E+08
0.10971E+08
0.11036E+08
0.10877E+08
0.10867E+08
0.11224E+08
0.11184E+08
0.11424E+08
0.11436E+08
0.11431E+08
0.11402E+08
0.11448E+08
0.11473E+08
0.11317E+08
0.11338E+08
0.11289E+08
0.11160E+08
0.11392E+08
0.11326E+08
0.11421E+08
0.11460E+08
0.11170E+08
0.11214E+08
0.11139E+08
0.11170E+08
0.11232E+08
0.11074E+08
0.11077E+08
0.11140E+08
0.11152E+08
0.11140E+08
0.11175E+08
0.11115E+08
0.11460E+08
0.10854E+08
</weights>
</event>
<event>
      7  10001  1.11453E+07  1.01695E+01 -1.00000E+00  1.94436E-01
      21    -1     0     0   502   501  0.000000000E+00  0.000000000E+00  2.636632009E-01  2.636632009E-01  0.000000000E+00  0.00000E+00  9.000E+00
       4    -1     0     0   501     0  0.000000000E+00  0.000000000E+00 -1.208245451E+02  1.208245451E+02  0.000000000E+00  0.00000E+00  9.000E+00
      23     2     1     2     0     0  4.821807471E-02 -2.621550312E-01 -1.192617007E+02  1.192708021E+02  1.449115963E+00  0.00000E+00  9.000E+00
      11     1     3     3     0     0 -4.373607401E-01 -3.057875025E-01 -1.038926684E+02  1.038940390E+02  5.110000000E-04  0.00000E+00  9.000E+00
     -11     1     3     3     0     0  4.855788148E-01  4.363247135E-02 -1.536903231E+01  1.537676315E+01  5.110000000E-04  0.00000E+00  9.000E+00
       4     1     1     2   511     0 -3.011134357E-02 -5.506977459E-02 -1.459956386E+00  1.461304904E+00  0.000000000E+00  0.00000E+00  9.000E+00
      21     1     1     2   502   511 -1.810673114E-02  3.172248058E-01  1.607752054E-01  3.561012465E-01  5.629534899E-07  0.00000E+00  9.000E+00
#rwgt            2         195   2737399.6203888482                3     1944249           0
<weights>
0.11145E+08
0.11070E+08
0.10953E+08
0.13455E+08
0.87763E+07
0.91702E+07
0.13910E+08
0.11113E+08
0.11175E+08
0.11307E+08
0.11283E+08
0.11070E+08
0.11402E+08
0.11349E+08
0.11326E+08
0.11127E+08
0.11028E+08
0.10970E+08
0.10872E+08
0.10869E+08
0.10989E+08
0.10948E+08
0.10857E+08
0.11103E+08
0.10905E+08
0.10979E+08
0.11199E+08
0.10987E+08
0.10985E+08
0.10941E+08
0.10930E+08
0.11127E+08
0.11100E+08
0.11132E+08
0.11149E+08
0.11174E+08
0.11113E+08
0.11034E+08
0.11327E+08
0.10978E+08
0.11301E+08
0.11061E+08
0.11235E+08
0.10953E+08
0.11306E+08
</weights>
</event>
<event>
      6  10001 -1.11453E+07  8.94427E-01 -1.00000E+00  1.50208E-01
      21    -1     0     0   502   501  0.000000000E+00  0.000000000E+00  1.683475241E-02  1.683475241E-02  0.000000000E+00  0.00000E+00  9.000E+00
       2    -1     0     0   501     0  0.000000000E+00  0.000000000E+00 -3.875415258E+01  3.875415258E+01  0.000000000E+00  0.00000E+00  9.000E+00
      23     2     1     2     0     0  1.238432123E-01  3.302193629E-01 -3.488328029E+01  3.490084685E+01  1.049516784E+00  0.00000E+00  9.000E+00
      11     1     3     3     0     0 -2.700033730E-02 -3.799841779E-01 -1.169088636E+01  1.169709114E+01  5.110000000E-04  0.00000E+00  9.000E+00
     -11     1     3     3     0     0  1.508435496E-01  7.102035408E-01 -2.319239393E+01  2.320375571E+01  5.110000000E-04  0.00000E+00  9.000E+00
       2     1     1     2   502     0 -1.238432123E-01 -3.302193629E-01 -3.854037538E+00  3.870140477E+00  0.000000000E+00  0.00000E+00  9.000E+00
#rwgt            1          17  -9650492.9849478938                3     1944481           0
<weights>
-.11145E+08
-.13411E+08
-.86177E+07
-.16299E+08
-.69049E+07
-.91702E+07
-.13910E+08
-.11194E+08
-.11097E+08
-.11043E+08
-.11087E+08
-.11135E+08
-.11045E+08
-.11077E+08
-.11086E+08
-.11091E+08
-.11225E+08
-.11099E+08
-.11339E+08
-.11349E+08
-.11088E+08
-.11204E+08
-.11205E+08
-.11237E+08
-.11141E+08
-.11146E+08
-.11141E+08
-.11338E+08
-.10944E+08
-.11198E+08
-.11181E+08
-.11144E+08
-.11163E+08
-.11070E+08
-.11253E+08
-.11117E+08
-.11175E+08
-.11006E+08
-.11281E+08
-.11079E+08
-.11198E+08
-.11209E+08
-.11077E+08
-.11219E+08
-.11071E+08
</weights>
</event>
<event>
      6  10001 -1.11453E+07  8.94427E-01 -1.00000E+00  3.35190E-01
       2    -1     0     0   501     0  0.000000000E+00  0.000000000E+00  1.046414404E+03  1.046414404E+03  0.000000000E+00  0.00000E+00  9.000E+00
      21    -1     0     0   502   501  0.000000000E+00  0.000000000E+00 -3.616593068E-03  3.616593068E-03  0.000000000E+00  0.00000E+00  9.000E+00
      23     2     1     2     0     0  2.292127468E-01 -3.472721928E-01  1.029977911E+03  1.029979877E+03  1.968965048E+00  0.00000E+00  9.000E+00
      11     1     3     3     0     0  4.438387863E-01 -5.176003322E-02  5.260528489E+01  5.260718269E+01  5.110000000E-04  0.00000E+00  9.000E+00
     -11     1     3     3     0     0 -2.146260396E-01 -2.955121596E-01  9.773726262E+02  9.773726944E+02  5.110000000E-04  0.00000E+00  9.000E+00
       2     1     1     2   502     0 -2.292127468E-01  3.472721928E-01  1.643287640E+01  1.643814355E+01  0.000000000E+00  0.00000E+00  9.000E+00
#rwgt            1          24  -37244075.539912492                3     1945133           0
<weights>
-.11145E+08
-.12162E+08
-.97361E+07
-.14797E+08
-.78016E+07
-.91605E+07
-.13909E+08
-.11183E+08
-.11107E+08
-.10845E+08
-.10848E+08
-.10970E+08
-.11025E+08
-.10868E+08
-.10857E+08
-.11222E+08
-.11193E+08
-.11429E+08
-.11463E+08
-.11453E+08
-.11408E+08
-.11460E+08
-.11486E+08
-.11360E+08
-.11328E+08
-.11279E+08
-.11279E+08
-.11399E+08
-.11341E+08
-.11434E+08
-.11473E+08
-.11172E+08
-.11216E+08
-.11141E+08
-.11170E+08
-.11219E+08
-.11089E+08
-.11087E+08
-.11130E+08
-.11155E+08
-.11137E+08
-.11179E+08
-.11110E+08
-.11471E+08
-.10844E+08
</weights>
</event>
<event>
      7  10001  1.11453E+07  7.35242E+00 -1.00000E+00  2.11791E-01
       2    -1     0     0   501     0  0.000000000E+00  0.000000000E+00  5.764357688E+02  5.764357688E+02  0.000000000E+00  0.00000E+00  9.000E+00
      21    -1     0     0   502   501  0.000000000E+00  0.000000000E+00 -5.192158489E-02  5.192158489E-02  0.000000000E+00  0.00000E+00  9.000E+00
      23     2     1     2     0     0  1.023462994E+00 -1.062872216E+00  2.934721268E+02  2.934849216E+02  2.309281331E+00  0.00000E+00  9.000E+00
      11     1     3     3     0     0  6.275748219E-01 -7.256475108E-01  2.813598478E+02  2.813614834E+02  5.110000000E-04  0.00000E+00  9.000E+00
     -11     1     3     3     0     0  3.958881718E-01 -3.372247054E-01  1.211227906E+01  1.212343813E+01  5.110000000E-04  0.00000E+00  9.000E+00
       2     1     1     2   511     0 -3.335353470E+00 -1.274868086E+00  1.885023248E+02  1.885361407E+02  0.000000000E+00  0.00000E+00  9.000E+00
      21     1     1     2   502   511  2.311890476E+00  2.337740302E+00  9.440939555E+01  9.446662816E+01  1.907348633E-06  0.00000E+00  9.000E+00
#rwgt            1          24   36241091.616274096                3     1945871           0
<weights>
0.11145E+08
0.12100E+08
0.99604E+07
0.12583E+08
0.95091E+07
0.10675E+08
0.11600E+08
0.11151E+08
0.11143E+08
0.10783E+08
0.10752E+08
0.10947E+08
0.10972E+08
0.10793E+08
0.10766E+08
0.11232E+08
0.11243E+08
0.11519E+08
0.11579E+08
0.11562E+08
0.11492E+08
0.11573E+08
0.11583E+08
0.11505E+08
0.11330E+08
0.11300E+08
0.11488E+08
0.11497E+08
0.11426E+08
0.11558E+08
0.11585E+08
0.11203E+08
0.11219E+08
0.11133E+08
0.11190E+08
0.11190E+08
0.11123E+08
0.11208E+08
0.11007E+08
0.11185E+08
0.11111E+08
0.11196E+08
0.11092E+08
0.11567E+08
0.10761E+08
</weights>
</event>
<event>
      6  10001 -1.11453E+07  8.94427E-01 -1.00000E+00  3.98749E-01
      21    -1     0     0   502   501  0.000000000E+00  0.000000000E+00  4.503456236E-03  4.503456236E-03  0.000000000E+00  0.00000E+00  9.000E+00
       2    -1     0     0   501     0  0.000000000E+00  0.000000000E+00 -3.385659442E+02  3.385659442E+02  0.000000000E+00  0.00000E+00  9.000E+00
      23     2     1     2     0     0 -4.391946881E-01 -8.241040905E-01 -2.020045857E+02  2.020103997E+02  1.215278521E+00  0.00000E+00  9.000E+00
      11     1     3     3     0     0 -2.927992830E-02 -1.048978450E+00 -1.256161031E+02  1.256204862E+02  5.110000000E-04  0.00000E+00  9.000E+00
     -11     1     3     3     0     0 -4.099147598E-01  2.248743591E-01 -7.638848267E+01  7.638991349E+01  5.110000000E-04  0.00000E+00  9.000E+00
       2     1     1     2   502     0  4.391946881E-01  8.241040905E-01 -1.365568550E+02  1.365600479E+02  0.000000000E+00  0.00000E+00  9.000E+00
#rwgt            1          17  -15808765.024254669                3     1968232           0
<weights>
-.11145E+08
-.12037E+08
-.10119E+08
-.14629E+08
-.81079E+07
-.91702E+07
-.13910E+08
-.11127E+08
-.11162E+08
-.11169E+08
-.11159E+08
-.11035E+08
-.11275E+08
-.11162E+08
-.11160E+08
-.11337E+08
-.10857E+08
-.11372E+08
-.10796E+08
-.10751E+08
-.11397E+08
-.11105E+08
-.11161E+08
-.11109E+08
-.11135E+08
-.11235E+08
-.11083E+08
-.10874E+08
-.11412E+08
-.11083E+08
-.11168E+08
-.11024E+08
-.11262E+08
-.11381E+08
-.10846E+08
-.11120E+08
-.11167E+08
-.11163E+08
-.11130E+08
-.11213E+08
-.11083E+08
-.11146E+08
-.11144E+08
-.11126E+08
-.11164E+08
</weights>
</event>
<event>
      7  10001  1.11453E+07  3.65346E+00 -1.00000E+00  2.69633E-01
       2    -1     0     0   502     0  0.000000000E+00  0.000000000E+00  7.104627181E+02  7.104627181E+02  0.000000000E+00  0.00000E+00  9.000E+00
      -1    -1     0     0     0   502  0.000000000E+00  0.000000000E+00 -9.273439545E-01  9.273439545E-01  0.000000000E+00  0.00000E+00  9.000E+00
      23     2     1     2     0     0  3.104198874E+00  9.424418371E-02  9.460244115E+00  1.078120134E+01  4.134386410E+00  0.00000E+00  9.000E+00
      11     1     3     3     0     0 -5.796457318E-01 -9.261786138E-01  3.778246709E+00  3.933057901E+00  5.110000000E-04  0.00000E+00  9.000E+00
     -11     1     3     3     0     0  3.683844605E+00  1.020422798E+00  5.681997406E+00  6.848143438E+00  5.110000000E-04  0.00000E+00  9.000E+00
      -1     1     1     2     0   501 -5.464629460E-01  2.514534736E+00  6.054793949E+00  6.578908455E+00  0.000000000E+00  0.00000E+00  9.000E+00
       2     1     1     2   501     0 -2.557735927E+00 -2.608778920E+00  6.940203361E+02  6.940299523E+02  0.000000000E+00  0.00000E+00  9.000E+00
#rwgt            1          15   146581.35002770895                3     1969715           0
<weights>
0.11145E+08
0.12675E+08
0.96214E+07
0.12257E+08
0.97752E+07
0.11304E+08
0.10634E+08
0.10944E+08
0.11374E+08
0.10814E+08
0.10767E+08
0.10978E+08
0.10947E+08
0.10819E+08
0.10783E+08
0.11166E+08
0.11328E+08
0.11528E+08
0.11493E+08
0.11475E+08
0.11508E+08
0.11556E+08
0.11545E+08
0.11466E+08
0.11290E+08
0.11392E+08
0.11121E+08
0.11525E+08
0.11322E+08
0.11547E+08
0.11547E+08
0.11154E+08
0.11262E+08
0.11146E+08
0.11179E+08
0.10967E+08
0.11362E+08
0.11198E+08
0.11018E+08
0.11176E+08
0.11115E+08
0.11231E+08
0.11055E+08
0.11539E+08
0.10787E+08
</weights>
</event>
<event>
      7  10001  1.11453E+07  2.39406E+00 -1.00000E+00  3.23569E-01
      -2    -1     0     0     0   502  0.000000000E+00  0.000000000E+00  6.602429785E-01  6.602429785E-01  0.000000000E+00  0.00000E+00  9.000E+00
      21    -1     0     0   502   511  0.000000000E+00  0.000000000E+00 -2.493327275E+02  2.493327275E+02  0.000000000E+00  0.00000E+00  9.000E+00
      23     2     1     2     0     0  2.256405832E+00 -2.309316511E+00 -3.252523154E+01  3.319464052E+01  5.793890108E+00  0.00000E+00  9.000E+00
      11     1     3     3     0     0  5.225180312E-01 -4.091177922E+00 -2.157777251E+01  2.196840979E+01  5.110000000E-04  0.00000E+00  9.000E+00
     -11     1     3     3     0     0  1.733887800E+00  1.781861411E+00 -1.094745903E+01  1.122623073E+01  5.110000000E-04  0.00000E+00  9.000E+00
      -2     1     1     2     0   501  1.183101301E-02  3.075220416E+00 -7.100192245E+00  7.737561017E+00  0.000000000E+00  0.00000E+00  9.000E+00
      21     1     1     2   501   511 -2.268236845E+00 -7.659039048E-01 -2.090470607E+02  2.090607689E+02  0.000000000E+00  0.00000E+00  9.000E+00
#rwgt            1           7   467318.56247442623                3     1974293           0
<weights>
0.11145E+08
0.12021E+08
0.10131E+08
0.12115E+08
0.99762E+07
0.10962E+08
0.11160E+08
0.11274E+08
0.11018E+08
0.10780E+08
0.10886E+08
0.10922E+08
0.11061E+08
0.10852E+08
0.10880E+08
0.11223E+08
0.11149E+08
0.11393E+08
0.11431E+08
0.11424E+08
0.11377E+08
0.11399E+08
0.11483E+08
0.11196E+08
0.11457E+08
0.11374E+08
0.11026E+08
0.11357E+08
0.11246E+08
0.11326E+08
0.11419E+08
0.11097E+08
0.11277E+08
0.11173E+08
0.11125E+08
0.11342E+08
0.10971E+08
0.10741E+08
0.11494E+08
0.11106E+08
0.11181E+08
0.11155E+08
0.11136E+08
0.11464E+08
0.10838E+08
</weights>
</event>
<event>
      7  10001  1.11453E+07  1.53222E+00 -1.00000E+00  4.11781E-01
       2    -1     0     0   501     0  0.000000000E+00  0.000000000E+00  4.545674790E-01  4.545674790E-01  0.000000000E+00  0.00000E+00  9.000E+00
       2    -1     0     0   502     0  0.000000000E+00  0.000000000E+00 -4.471565751E+02  4.471565751E+02  0.000000000E+00  0.00000E+00  9.000E+00
      23     2     1     2     0     0 -2.830280985E-01 -1.325522546E-01 -4.347569734E+00  4.618738315E+00  1.527647219E+00  0.00000E+00  9.000E+00
      11     1     3     3     0     0  3.755690719E-01 -6.269729031E-01 -1.862297203E+00  2.000574488E+00  5.110000000E-04  0.00000E+00  9.000E+00
     -11     1     3     3     0     0 -6.585971704E-01  4.944206484E-01 -2.485272531E+00  2.618163827E+00  5.110000000E-04  0.00000E+00  9.000E+00
       2     1     1     2   502     0  1.366184550E+00 -9.511714792E-01 -1.863350892E+00  2.498652428E+00  0.000000000E+00  0.00000E+00  9.000E+00
       2     1     1     2   501     0 -1.083156451E+00  1.083723734E+00 -4.404910870E+02  4.404937519E+02  0.000000000E+00  0.00000E+00  9.000E+00
#rwgt            1          24   494275.58757458563                3     2011144           0
<weights>
0.11145E+08
0.13550E+08
0.87993E+07
0.11555E+08
0.10097E+08
0.12415E+08
0.89287E+07
0.11226E+08
0.11057E+08
0.10645E+08
0.10618E+08
0.10870E+08
0.10922E+08
0.10657E+08
0.10631E+08
0.11263E+08
0.11291E+08
0.11673E+08
0.11689E+08
0.11688E+08
0.11630E+08
0.11722E+08
0.11754E+08
0.11458E+08
0.11502E+08
0.11471E+08
0.11082E+08
0.11654E+08
0.11478E+08
0.11695E+08
0.11739E+08
0.11223E+08
0.11243E+08
0.11125E+08
0.11205E+08
0.11279E+08
0.11036E+08
0.11169E+08
0.10956E+08
0.11211E+08
0.11089E+08
0.11196E+08
0.11093E+08
0.11719E+08
0.10621E+08
</weights>
</event>
<event>
      7  10001  1.11453E+07  2.51212E+00 -1.00000E+00  3.16308E-01
       4    -1     0     0   501     0  0.000000000E+00  0.000000000E+00  1.310259681E-01  1.310259681E-01  0.000000000E+00  0.00000E+00  9.000E+00
      21    -1     0     0   502   501  0.000000000E+00  0.000000000E+00 -1.203754260E+02  1.203754260E+02  0.000000000E+00  0.00000E+00  9.000E+00
      23     2     1     2     0     0  2.871075542E-01 -7.854846457E-01 -5.313678314E+00  5.569013028E+00  1.441981971E+00  0.00000E+00  9.000E+00
      11     1     3     3     0     0  2.776976248E-01  3.694057012E-01 -2.200611414E+00  2.248614551E+00  5.110000000E-04  0.00000E+00  9.000E+00
     -11     1     3     3     0     0  9.409929441E-03 -1.154890347E+00 -3.113066900E+00  3.320398477E+00  5.110000000E-04  0.00000E+00  9.000E+00
       4     1     1     2   511     0  1.565223378E-02 -1.988603064E-01 -1.324067569E+01  1.324217819E+01  0.000000000E+00  0.00000E+00  9.000E+00
      21     1     1     2   502   511 -3.027597880E-01  9.843449521E-01 -1.016900460E+02  1.016952607E+02  1.348699152E-06  0.00000E+00  9.000E+00
#rwgt            1          28   4453830.0165332612                3     2059204           0
<weights>
0.11145E+08
0.11519E+08
0.10584E+08
0.12622E+08
0.94925E+07
0.10155E+08
0.12398E+08
0.11201E+08
0.11089E+08
0.11078E+08
0.11164E+08
0.11020E+08
0.11256E+08
0.11184E+08
0.11177E+08
0.11176E+08
0.11018E+08
0.11111E+08
0.11019E+08
0.11010E+08
0.11122E+08
0.11092E+08
0.11035E+08
0.11091E+08
0.11125E+08
0.11130E+08
0.11120E+08
0.11082E+08
0.11058E+08
0.11038E+08
0.11083E+08
0.11076E+08
0.11198E+08
0.11162E+08
0.11119E+08
0.11266E+08
0.11031E+08
0.10796E+08
0.11577E+08
0.11021E+08
0.11259E+08
0.11106E+08
0.11187E+08
0.11131E+08
0.11133E+08
</weights>
</event>
<event>
      6  10001 -1.11453E+07  8.94427E-01 -1.00000E+00  2.41198E-01
      -5    -1     0     0     0   502  0.000000000E+00  0.000000000E+00  3.076367093E-01  3.076367093E-01  0.000000000E+00  0.00000E+00  9.000E+00
      21    -1     0     0   502   501  0.000000000E+00  0.000000000E+00 -2.187328980E+00  2.187328980E+00  0.000000000E+00  0.00000E+00  9.000E+00
      23     2     1     2     0     0 -1.958072938E-02 -3.221637229E-01 -1.407205907E+00  1.922762724E+00  1.269887853E+00  0.00000E+00  9.000E+00
      11     1     3     3     0     0 -6.316409878E-01 -2.650226655E-01 -6.194338485E-01  9.235290491E-01  5.110000000E-04  0.00000E+00  9.000E+00
     -11     1     3     3     0     0  6.120602584E-01 -5.714105745E-02 -7.877720581E-01  9.992336749E-01  5.110000000E-04  0.00000E+00  9.000E+00
      -5     1     1     2     0   501  1.958072938E-02  3.221637229E-01 -4.724863642E-01  5.722029655E-01  0.000000000E+00  0.00000E+00  9.000E+00
#rwgt            1           1  -145360.44481521667                3     2164105           0
<weights>
-.11145E+08
-.97042E+07
-.11482E+08
-.16875E+08
-.67675E+07
-.61578E+07
-.18534E+08
-.11169E+08
-.11123E+08
-.11200E+08
-.11247E+08
-.11130E+08
-.11236E+08
-.11223E+08
-.11249E+08
-.11144E+08
-.11052E+08
-.11031E+08
-.11031E+08
-.11029E+08
-.11041E+08
-.11006E+08
-.11041E+08
-.11030E+08
-.11124E+08
-.11081E+08
-.11097E+08
-.11006E+08
-.11048E+08
-.10982E+08
-.11012E+08
-.11089E+08
-.11162E+08
-.11154E+08
-.11122E+08
-.11187E+08
-.11102E+08
-.10929E+08
-.11368E+08
-.11070E+08
-.11212E+08
-.11124E+08
-.11168E+08
-.11041E+08
-.11232E+08
</weights>
</event>
<event>
      6  10001 -1.11453E+07  8.94427E-01 -1.00000E+00  4.27678E-01
      21    -1     0     0   502   501  0.000000000E+00  0.000000000E+00  1.241480063E-01  1.241480063E-01  0.000000000E+00  0.00000E+00  9.000E+00
      -4    -1     0     0     0   502  0.000000000E+00  0.000000000E+00 -7.019923199E+00  7.019923199E+00  0.000000000E+00  0.00000E+00  9.000E+00
      23     2     1     2     0     0 -2.888499065E-01 -2.324749434E-02 -5.458962765E+00  5.678327480E+00  1.535953707E+00  0.00000E+00  9.000E+00
      11     1     3     3     0     0 -6.836662552E-01 -3.805987872E-01 -4.611706477E+00  4.677616046E+00  5.110000000E-04  0.00000E+00  9.000E+00
     -11     1     3     3     0     0  3.948163488E-01  3.573512929E-01 -8.472562878E-01  1.000711434E+00  5.110000000E-04  0.00000E+00  9.000E+00
      -4     1     1     2     0   501  2.888499065E-01  2.324749434E-02 -1.436812428E+00  1.465743725E+00  0.000000000E+00  0.00000E+00  9.000E+00
#rwgt            1          12  -780541.25421806355                3     2165946           0
<weights>
-.11145E+08
-.12027E+08
-.94845E+07
-.17709E+08
-.59514E+07
-.72619E+07
-.16839E+08
-.11218E+08
-.11071E+08
-.10908E+08
-.10953E+08
-.10984E+08
-.11098E+08
-.10948E+08
-.10957E+08
-.11203E+08
-.11150E+08
-.11329E+08
-.11339E+08
-.11335E+08
-.11316E+08
-.11334E+08
-.11377E+08
-.11204E+08
-.11336E+08
-.11294E+08
-.11067E+08
-.11305E+08
-.11228E+08
-.11294E+08
-.11346E+08
-.11131E+08
-.11220E+08
-.11150E+08
-.11149E+08
-.11268E+08
-.11037E+08
-.10934E+08
-.11298E+08
-.11117E+08
-.11172E+08
-.11151E+08
-.11139E+08
-.11368E+08
-.10933E+08
</weights>
</event>
<event>
      6  10001  1.11453E+07  8.94427E-01 -1.00000E+00  6.04776E-01
      -2    -1     0     0     0   502  0.000000000E+00  0.000000000E+00  3.662843933E-01  3.662843933E-01  0.000000000E+00  0.00000E+00  9.000E+00
       2    -1     0     0   501     0  0.000000000E+00  0.000000000E+00 -1.067667485E+01  1.067667485E+01  0.000000000E+00  0.00000E+00  9.000E+00
      23     2     1     2     0     0 -3.424973996E-01 -4.475243017E-01 -1.034706722E+01  1.047822244E+01  1.553628931E+00  0.00000E+00  9.000E+00
      11     1     3     3     0     0  3.394529354E-02 -2.011092126E-01 -1.108687032E-01  2.321407522E-01  5.110000000E-04  0.00000E+00  9.000E+00
     -11     1     3     3     0     0 -3.764426931E-01 -2.464150891E-01 -1.023619852E+01  1.024608168E+01  5.110000000E-04  0.00000E+00  9.000E+00
      21     1     1     2   501   502  3.424973996E-01  4.475243017E-01  3.667677107E-02  5.647368014E-01  2.163195917E-08  0.00000E+00  9.000E+00
#rwgt            1           8   1016694.1242647109                3     2173921           0
<weights>
0.11145E+08
0.12274E+08
0.99440E+07
0.13007E+08
0.91472E+07
0.10425E+08
0.11983E+08
0.11157E+08
0.11129E+08
0.10886E+08
0.10896E+08
0.11053E+08
0.10959E+08
0.10905E+08
0.10902E+08
0.11082E+08
0.11369E+08
0.11310E+08
0.11519E+08
0.11520E+08
0.11291E+08
0.11413E+08
0.11429E+08
0.11313E+08
0.11313E+08
0.11329E+08
0.11064E+08
0.11504E+08
0.11092E+08
0.11401E+08
0.11392E+08
0.11158E+08
0.11213E+08
0.11094E+08
0.11242E+08
0.11037E+08
0.11269E+08
0.11040E+08
0.11157E+08
0.11122E+08
0.11161E+08
0.11231E+08
0.11054E+08
0.11418E+08
0.10893E+08
</weights>
</event>
<event>
      6  10001 -1.11453E+07  8.94427E-01 -1.00000E+00  2.64682E-01
       2    -1     0     0   501     0  0.000000000E+00  0.000000000E+00  3.602554425E+02  3.602554425E+02  0.000000000E+00  0.00000E+00  9.000E+00
      21    -1     0     0   502   501  0.000000000E+00  0.000000000E+00 -1.360109626E-02  1.360109626E-02  0.000000000E+00  0.00000E+00  9.000E+00
      23     2     1     2     0     0  5.856489902E-01  2.873982545E-01  3.516702527E+02  3.516726656E+02  1.127600537E+00  0.00000E+00  9.000E+00
      11     1     3     3     0     0 -2.699103311E-01 -4.314812473E-02  1.584707919E+02  1.584710276E+02  5.110000000E-04  0.00000E+00  9.000E+00
     -11     1     3     3     0     0  8.555593213E-01  3.305463792E-01  1.931994608E+02  1.932016380E+02  5.110000000E-04  0.00000E+00  9.000E+00
       2     1     1     2   502     0 -5.856489902E-01 -2.873982545E-01  8.571588676E+00  8.596378012E+00  0.000000000E+00  0.00000E+00  9.000E+00
#rwgt            1          24  -28249013.700745661                3     2179910           0
<weights>
-.11145E+08
-.12134E+08
-.99283E+07
-.14758E+08
-.79554E+07
-.91640E+07
-.13909E+08
-.11170E+08
-.11122E+08
-.10822E+08
-.10811E+08
-.10961E+08
-.11005E+08
-.10840E+08
-.10822E+08
-.11226E+08
-.11212E+08
-.11464E+08
-.11507E+08
-.11494E+08
-.11440E+08
-.11504E+08
-.11523E+08
-.11415E+08
-.11328E+08
-.11287E+08
-.11361E+08
-.11437E+08
-.11373E+08
-.11482E+08
-.11516E+08
-.11184E+08
-.11217E+08
-.11138E+08
-.11178E+08
-.11208E+08
-.11102E+08
-.11135E+08
-.11082E+08
-.11167E+08
-.11127E+08
-.11186E+08
-.11103E+08
-.11507E+08
-.10812E+08
</weights>
</event>
<event>
      6  10001 -1.11453E+07  8.94427E-01 -1.00000E+00  4.02346E-01
       4    -1     0     0   501     0  0.000000000E+00  0.000000000E+00  2.049157493E-02  2.049157493E-02  0.000000000E+00  0.00000E+00  9.000E+00
      21    -1     0     0   502   501  0.000000000E+00  0.000000000E+00 -1.016403894E+02  1.016403894E+02  0.000000000E+00  0.00000E+00  9.000E+00
      23     2     1     2     0     0 -5.360279257E-01  3.240588943E-01 -5.148263814E+01  5.151970878E+01  1.850951937E+00  0.00000E+00  9.000E+00
      11     1     3     3     0     0 -7.469988814E-01  2.290398660E-02 -7.844118916E+00  7.879640458E+00  5.110000000E-04  0.00000E+00  9.000E+00
     -11     1     3     3     0     0  2.109709556E-01  3.011549077E-01 -4.363851922E+01  4.364006832E+01  5.110000000E-04  0.00000E+00  9.000E+00
       4     1     1     2   502     0  5.360279257E-01 -3.240588943E-01 -5.013725970E+01  5.014117220E+01  0.000000000E+00  0.00000E+00  9.000E+00
#rwgt            1          28  -546805.67014301603                3     2181179           0
<weights>
-.11145E+08
-.12226E+08
-.97995E+07
-.14859E+08
-.78519E+07
-.91702E+07
-.13910E+08
-.11161E+08
-.11129E+08
-.11170E+08
-.11202E+08
-.11076E+08
-.11267E+08
-.11222E+08
-.11218E+08
-.11150E+08
-.11059E+08
-.11074E+08
-.11010E+08
-.11005E+08
-.11085E+08
-.11057E+08
-.11014E+08
-.11097E+08
-.11078E+08
-.11107E+08
-.11132E+08
-.11067E+08
-.11052E+08
-.11032E+08
-.11049E+08
-.11105E+08
-.11158E+08
-.11147E+08
-.11135E+08
-.11209E+08
-.11084E+08
-.10964E+08
-.11388E+08
-.11048E+08
-.11235E+08
-.11105E+08
-.11189E+08
-.11076E+08
-.11194E+08
</weights>
</event>
<event>
      6  10001 -1.11453E+07  8.94427E-01 -1.00000E+00  2.14271E-01
       2    -1     0     0   501     0  0.000000000E+00  0.000000000E+00  5.033527237E+02  5.033527237E+02  0.000000000E+00  0.00000E+00  9.000E+00
      -2    -1     0     0     0   502  0.000000000E+00  0.000000000E+00 -1.285069467E-03  1.285069467E-03  0.000000000E+00  0.00000E+00  9.000E+00
      23     2     1     2     0     0 -3.173007014E-01  1.783620486E-01  3.767318416E+02  3.767338885E+02  1.187355179E+00  0.00000E+00  9.000E+00
      11     1     3     3     0     0  3.396232999E-01  4.084012280E-01  1.350193689E+02  1.350204137E+02  5.110000000E-04  0.00000E+00  9.000E+00
     -11     1     3     3     0     0 -6.569240013E-01 -2.300391794E-01  2.417124727E+02  2.417134748E+02  5.110000000E-04  0.00000E+00  9.000E+00
      21     1     1     2   501   502  3.173007014E-01 -1.783620486E-01  1.266195971E+02  1.266201203E+02  1.348699152E-06  0.00000E+00  9.000E+00
#rwgt            1          23  -757057.51727079717                3     2185837           0
<weights>
-.11145E+08
-.13443E+08
-.85576E+07
-.16358E+08
-.68573E+07
-.91591E+07
-.13909E+08
-.11158E+08
-.11138E+08
-.10815E+08
-.10800E+08
-.10959E+08
-.10997E+08
-.10831E+08
-.10811E+08
-.11225E+08
-.11220E+08
-.11475E+08
-.11520E+08
-.11506E+08
-.11451E+08
-.11518E+08
-.11534E+08
-.11434E+08
-.11327E+08
-.11291E+08
-.11380E+08
-.11449E+08
-.11382E+08
-.11497E+08
-.11529E+08
-.11187E+08
-.11219E+08
-.11137E+08
-.11180E+08
-.11198E+08
-.11113E+08
-.11150E+08
-.11067E+08
-.11170E+08
-.11124E+08
-.11188E+08
-.11100E+08
-.11519E+08
-.10802E+08
</weights>
</event>
<event>
      6  10001  1.11453E+07  8.94427E-01 -1.00000E+00  5.95574E-01
       2    -1     0     0   501     0  0.000000000E+00  0.000000000E+00  2.932869864E+01  2.932869864E+01  0.000000000E+00  0.00000E+00  9.000E+00
      -2    -1     0     0     0   502  0.000000000E+00  0.000000000E+00 -4.648005528E-02  4.648005528E-02  0.000000000E+00  0.00000E+00  9.000E+00
      23     2     1     2     0     0  5.466958175E-02 -4.160631265E-01  7.789415410E+00  7.878279253E+00  1.102811989E+00  0.00000E+00  9.000E+00
      11     1     3     3     0     0 -4.129819896E-01 -4.035002650E-01  2.394882373E+00  2.463499224E+00  5.110000000E-04  0.00000E+00  9.000E+00
     -11     1     3     3     0     0  4.676515713E-01 -1.256286157E-02  5.394533037E+00  5.414780029E+00  5.110000000E-04  0.00000E+00  9.000E+00
      21     1     1     2   501   502 -5.466958175E-02  4.160631265E-01  2.149280317E+01  2.149689944E+01  2.384185791E-07  0.00000E+00  9.000E+00
#rwgt            1          23   488661.82539429242                3     2187957           0
<weights>
0.11155E+08
0.12907E+08
0.95017E+07
0.12038E+08
0.97681E+07
0.11529E+08
0.10315E+08
0.10869E+08
0.11558E+08
0.10799E+08
0.10740E+08
0.10978E+08
0.10941E+08
0.10800E+08
0.10757E+08
0.11194E+08
0.11334E+08
0.11555E+08
0.11587E+08
0.11561E+08
0.11534E+08
0.11610E+08
0.11595E+08
0.11600E+08
0.11270E+08
0.11350E+08
0.11467E+08
0.11553E+08
0.11404E+08
0.11605E+08
0.11604E+08
0.11185E+08
0.11265E+08
0.11142E+08
0.11207E+08
0.11002E+08
0.11359E+08
0.11257E+08
0.10986E+08
0.11197E+08
0.11117E+08
0.11236E+08
0.11071E+08
0.11587E+08
0.10763E+08
</weights>
</event>
<event>
      6  10001 -1.11453E+07  8.94427E-01 -1.00000E+00  1.35798E-01
       4    -1     0     0   501     0  0.000000000E+00  0.000000000E+00  3.329768484E+01  3.329768484E+01  0.000000000E+00  0.00000E+00  9.000E+00
      21    -1     0     0   502   501  0.000000000E+00  0.000000000E+00 -1.601895987E-02  1.601895987E-02  0.000000000E+00  0.00000E+00  9.000E+00
      23     2     1     2     0     0  2.299316046E-01 -2.088197455E-01  2.747936774E+01  2.750309816E+01  1.099219096E+00  0.00000E+00  9.000E+00
      11     1     3     3     0     0 -2.550275630E-01 -4.113113324E-01  6.867331449E+00  6.884363265E+00  5.110000000E-04  0.00000E+00  9.000E+00
     -11     1     3     3     0     0  4.849591675E-01  2.024915869E-01  2.061203629E+01  2.061873489E+01  5.110000000E-04  0.00000E+00  9.000E+00
       4     1     1     2   502     0 -2.299316046E-01  2.088197455E-01  5.802298140E+00  5.810605643E+00  0.000000000E+00  0.00000E+00  9.000E+00
#rwgt            1          28  -2196233.8125657216                3     2189454           0
<weights>
-.11145E+08
-.12921E+08
-.92211E+07
-.15703E+08
-.73884E+07
-.91712E+07
-.13910E+08
-.11177E+08
-.11114E+08
-.10832E+08
-.10827E+08
-.10965E+08
-.11014E+08
-.10852E+08
-.10837E+08
-.11225E+08
-.11203E+08
-.11450E+08
-.11486E+08
-.11475E+08
-.11427E+08
-.11485E+08
-.11507E+08
-.11389E+08
-.11329E+08
-.11284E+08
-.11312E+08
-.11421E+08
-.11360E+08
-.11462E+08
-.11498E+08
-.11179E+08
-.11216E+08
-.11139E+08
-.11175E+08
-.11213E+08
-.11096E+08
-.11116E+08
-.11100E+08
-.11162E+08
-.11131E+08
-.11183E+08
-.11106E+08
-.11492E+08
-.10826E+08
</weights>
</event>
<event>
      7  10001  1.11453E+07  8.94427E-01 -1.00000E+00  6.07649E-01
      21    -1     0     0   511   502  0.000000000E+00  0.000000000E+00  8.274020217E-02  8.274020217E-02  0.000000000E+00  0.00000E+00  9.000E+00
       2    -1     0     0   501     0  0.000000000E+00  0.000000000E+00 -2.631340740E+02  2.631340740E+02  0.000000000E+00  0.00000E+00  9.000E+00
      23     2     1     2     0     0  3.905736140E-01 -5.142836939E-02 -2.511269743E+02  2.511341007E+02  1.850431326E+00  0.00000E+00  9.000E+00
      11     1     3     3     0     0  1.120948900E+00 -9.750500034E-02 -1.746683518E+02  1.746719759E+02  5.110000000E-04  0.00000E+00  9.000E+00
     -11     1     3     3     0     0 -7.303752863E-01  4.607663095E-02 -7.645862254E+01  7.646212482E+01  5.110000000E-04  0.00000E+00  9.000E+00
      21     1     1     2   501   502 -1.819490862E-01 -1.246247570E-01 -7.907719428E-02  2.342861556E-01  8.022358815E-08  0.00000E+00  9.000E+00
       2     1     1     2   511     0 -2.086245278E-01  1.760531264E-01 -1.184528223E+01  1.184842733E+01  0.000000000E+00  0.00000E+00  9.000E+00
#rwgt            2         190   4366776.3853169018                3     2193553           0
<weights>
0.11145E+08
0.10812E+08
0.11339E+08
0.13140E+08
0.90854E+07
0.91702E+07
0.13910E+08
0.11127E+08
0.11162E+08
0.11172E+08
0.11164E+08
0.11067E+08
0.11241E+08
0.11167E+08
0.11165E+08
0.11329E+08
0.10863E+08
0.11305E+08
0.10872E+08
0.10840E+08
0.11322E+08
0.11103E+08
0.11151E+08
0.11145E+08
0.11095E+08
0.11181E+08
0.11114E+08
0.10950E+08
0.11310E+08
0.11093E+08
0.11153E+08
0.11040E+08
0.11244E+08
0.11305E+08
0.10936E+08
0.11130E+08
0.11156E+08
0.11169E+08
0.11122E+08
0.11188E+08
0.11105E+08
0.11155E+08
0.11134E+08
0.11121E+08
0.11169E+08
</weights>
</event>
<event>
      7  10001  1.11453E+07  1.00098E+00 -1.00000E+00  5.62199E-01
      21    -1     0     0   502   501  0.000000000E+00  0.000000000E+00  3.801555564E-01  3.801555564E-01  0.000000000E+00  0.00000E+00  9.000E+00
      -4    -1     0     0     0   502  0.000000000E+00  0.000000000E+00 -3.643252713E+00  3.643252713E+00  0.000000000E+00  0.00000E+00  9.000E+00
      23     2     1     2     0     0  2.664857725E-01  2.504794544E-01 -3.360007795E+00  3.601966580E+00  1.245293635E+00  0.00000E+00  9.000E+00
      11     1     3     3     0     0 -3.062207142E-01  5.541343318E-01 -1.947305420E+00  2.047641239E+00  5.110000000E-04  0.00000E+00  9.000E+00
     -11     1     3     3     0     0  5.727064867E-01 -3.036548774E-01 -1.412702375E+00  1.554325341E+00  5.110000000E-04  0.00000E+00  9.000E+00
      -4     1     1     2     0   511  1.799476409E-02  1.051954174E-02 -6.370990604E-03  2.179591279E-02  0.000000000E+00  0.00000E+00  9.000E+00
      21     1     1     2   511   501 -2.844805366E-01 -2.609989961E-01  1.032816292E-01  3.996457764E-01  6.177695078E-09  0.00000E+00  9.000E+00
#rwgt            1          12   299076.17231105792                3     2193994           0
<weights>
0.11145E+08
0.23884E+08
0.28167E+06
0.10699E+08
0.10186E+08
0.20586E+08
-.36140E+07
0.11239E+08
0.11037E+08
0.10222E+08
0.10035E+08
0.10646E+08
0.10682E+08
0.10166E+08
0.10072E+08
0.11332E+08
0.11611E+08
0.12283E+08
0.12272E+08
0.12280E+08
0.12190E+08
0.12402E+08
0.12387E+08
0.11860E+08
0.11825E+08
0.11964E+08
0.10896E+08
0.12349E+08
0.11832E+08
0.12414E+08
0.12415E+08
0.11396E+08
0.11272E+08
0.11050E+08
0.11337E+08
0.11362E+08
0.10971E+08
0.11675E+08
0.10301E+08
0.11382E+08
0.10944E+08
0.11230E+08
0.11058E+08
0.12320E+08
0.10093E+08
</weights>
</event>
<event>
      7  10001  1.11453E+07  8.94427E-01 -1.00000E+00  6.07649E-01
      21    -1     0     0   512   502  0.000000000E+00  0.000000000E+00  7.601474071E-02  7.601474071E-02  0.000000000E+00  0.00000E+00  9.000E+00
       2    -1     0     0   501     0  0.000000000E+00  0.000000000E+00 -1.971451543E+02  1.971451543E+02  0.000000000E+00  0.00000E+00  9.000E+00
      23     2     1     2     0     0 -2.050059704E-01  1.927224764E-01 -1.921768306E+02  1.921845821E+02  1.703005483E+00  0.00000E+00  9.000E+00
      11     1     3     3     0     0 -3.580992875E-01  1.392785865E-01 -1.903951636E+02  1.903955513E+02  5.110000000E-04  0.00000E+00  9.000E+00
     -11     1     3     3     0     0  1.530933170E-01  5.344388991E-02 -1.781666991E+00  1.789030839E+00  5.110000000E-04  0.00000E+00  9.000E+00
      21     1     1     2   501   502  4.021145711E-01 -4.884212418E-01 -1.531314578E+00  1.656857198E+00  2.623620162E-07  0.00000E+00  9.000E+00
       2     1     1     2   512     0 -1.971086006E-01  2.956987654E-01 -3.360994431E+00  3.379729742E+00  0.000000000E+00  0.00000E+00  9.000E+00
#rwgt            2         190   20512475.879196588                3     2202097           0
<weights>
0.11143E+08
0.10946E+08
0.11175E+08
0.13303E+08
0.89543E+07
0.91683E+07
0.13907E+08
0.11128E+08
0.11157E+08
0.11170E+08
0.11167E+08
0.11102E+08
0.11198E+08
0.11169E+08
0.11168E+08
0.11297E+08
0.10896E+08
0.11223E+08
0.10962E+08
0.10944E+08
0.11232E+08
0.11101E+08
0.11134E+08
0.11180E+08
0.11051E+08
0.11123E+08
0.11143E+08
0.11037E+08
0.11190E+08
0.11101E+08
0.11132E+08
0.11064E+08
0.11213E+08
0.11220E+08
0.11035E+08
0.11136E+08
0.11145E+08
0.11168E+08
0.11118E+08
0.11156E+08
0.11128E+08
0.11165E+08
0.11119E+08
0.11114E+08
0.11170E+08
</weights>
</event>
<event>
      7  10001  1.11453E+07  1.09075E+00 -1.00000E+00  5.30074E-01
      21    -1     0     0   502   511  0.000000000E+00  0.000000000E+00  4.355321517E+01  4.355321517E+01  0.000000000E+00  0.00000E+00  9.000E+00
       2    -1     0     0   501     0  0.000000000E+00  0.000000000E+00 -5.150995257E-01  5.150995257E-01  0.000000000E+00  0.00000E+00  9.000E+00
      23     2     1     2     0     0 -5.868548702E-01 -4.156295154E-01  8.200553870E-01  1.487869327E+00  1.011987038E+00  0.00000E+00  9.000E+00
      11     1     3     3     0     0 -6.703366768E-01 -2.854426152E-01  8.130310351E-02  7.331024503E-01  5.110000000E-04  0.00000E+00  9.000E+00
     -11     1     3     3     0     0  8.348180663E-02 -1.301869002E-01  7.387522835E-01  7.547668769E-01  5.110000000E-04  0.00000E+00  9.000E+00
       2     1     1     2   502     0 -4.877131059E-01  6.027887721E-01  6.896305865E-01  1.037693945E+00  0.000000000E+00  0.00000E+00  9.000E+00
      21     1     1     2   501   511  1.074567976E+00 -1.871592566E-01  4.152842967E+01  4.154275143E+01  8.259061849E-07  0.00000E+00  9.000E+00
#rwgt            1          17   109094.29013670491                3     2202785           0
<weights>
0.11145E+08
0.25603E+08
-.23170E+06
-.18980E+07
0.17923E+08
0.29784E+08
-.17734E+08
0.93106E+07
0.13310E+08
0.10563E+08
0.10205E+08
0.11028E+08
0.10413E+08
0.10460E+08
0.10262E+08
0.10852E+08
0.12150E+08
0.12083E+08
0.11988E+08
0.11901E+08
0.12062E+08
0.12226E+08
0.11992E+08
0.12414E+08
0.11021E+08
0.11813E+08
0.11288E+08
0.12336E+08
0.11374E+08
0.12335E+08
0.12091E+08
0.11129E+08
0.11485E+08
0.11100E+08
0.11331E+08
0.95713E+07
0.12910E+08
0.11968E+08
0.10272E+08
0.11311E+08
0.10978E+08
0.11522E+08
0.10744E+08
0.12031E+08
0.10365E+08
</weights>
</event>
<event>
      6  10001 -1.11453E+07  8.94427E-01 -1.00000E+00  4.11929E-01
      21    -1     0     0   502   501  0.000000000E+00  0.000000000E+00  1.385610384E-02  1.385610384E-02  0.000000000E+00  0.00000E+00  9.000E+00
      -2    -1     0     0     0   502  0.000000000E+00  0.000000000E+00 -1.785670818E+02  1.785670818E+02  0.000000000E+00  0.00000E+00  9.000E+00
      23     2     1     2     0     0 -2.638617987E-01 -8.584423793E-01 -8.305066687E+01  8.307415653E+01  1.759451327E+00  0.00000E+00  9.000E+00
      11     1     3     3     0     0 -5.220296279E-01 -1.238659556E+00 -7.364728480E+01  7.365955030E+01  5.110000000E-04  0.00000E+00  9.000E+00
     -11     1     3     3     0     0  2.581678292E-01  3.802171763E-01 -9.403382075E+00  9.414606229E+00  5.110000000E-04  0.00000E+00  9.000E+00
      -2     1     1     2     0   501  2.638617987E-01  8.584423793E-01 -9.550255885E+01  9.550678140E+01  0.000000000E+00  0.00000E+00  9.000E+00
#rwgt            1          14  -964537.09128797846                3     2209279           0
<weights>
-.11145E+08
-.12125E+08
-.99847E+07
-.14736E+08
-.80003E+07
-.91702E+07
-.13910E+08
-.11080E+08
-.11205E+08
-.11296E+08
-.11280E+08
-.11129E+08
-.11228E+08
-.11295E+08
-.11292E+08
-.11037E+08
-.11192E+08
-.11065E+08
-.10908E+08
-.10885E+08
-.11087E+08
-.10986E+08
-.10977E+08
-.11121E+08
-.10984E+08
-.11023E+08
-.11169E+08
-.11006E+08
-.10967E+08
-.11008E+08
-.11002E+08
-.11215E+08
-.11023E+08
-.11305E+08
-.10988E+08
-.11134E+08
-.11133E+08
-.11275E+08
-.11020E+08
-.11113E+08
-.11158E+08
-.11299E+08
-.10980E+08
-.10979E+08
-.11297E+08
</weights>
</event>
<event>
      6  10001 -1.11453E+07  8.94427E-01 -1.00000E+00  4.65049E-01
      21    -1     0     0   502   501  0.000000000E+00  0.000000000E+00  7.060800912E+01  7.060800912E+01  0.000000000E+00  0.00000E+00  9.000E+00
      -3    -1     0     0     0   502  0.000000000E+00  0.000000000E+00 -1.801412191E-02  1.801412191E-02  0.000000000E+00  0.00000E+00  9.000E+00
      23     2     1     2     0     0  2.548014425E-01 -7.066188955E-01  3.518267526E+01  3.521073664E+01  1.187898255E+00  0.00000E+00  9.000E+00
      11     1     3     3     0     0  7.181536860E-01 -4.582820717E-01  1.820187565E+01  1.822180136E+01  5.110000000E-04  0.00000E+00  9.000E+00
     -11     1     3     3     0     0 -4.633522435E-01 -2.483368237E-01  1.698079960E+01  1.698893528E+01  5.110000000E-04  0.00000E+00  9.000E+00
      -3     1     1     2     0   501 -2.548014425E-01  7.066188955E-01  3.540731975E+01  3.541528661E+01  0.000000000E+00  0.00000E+00  9.000E+00
#rwgt            1          13  -94997.602259028354                3     2210528           0
<weights>
-.11145E+08
-.12833E+08
-.92154E+07
-.15594E+08
-.73837E+07
-.91725E+07
-.13910E+08
-.11173E+08
-.11118E+08
-.10817E+08
-.10805E+08
-.10962E+08
-.10998E+08
-.10833E+08
-.10815E+08
-.11223E+08
-.11218E+08
-.11455E+08
-.11562E+08
-.11536E+08
-.11434E+08
-.11511E+08
-.11533E+08
-.11518E+08
-.11306E+08
-.11258E+08
-.11804E+08
-.11433E+08
-.11400E+08
-.11490E+08
-.11526E+08
-.11189E+08
-.11215E+08
-.11137E+08
-.11179E+08
-.11209E+08
-.11101E+08
-.11145E+08
-.11071E+08
-.11170E+08
-.11125E+08
-.11187E+08
-.11102E+08
-.11515E+08
-.10806E+08
</weights>
</event>
<event>
      6  10001 -1.11453E+07  8.94427E-01 -1.00000E+00  3.83149E-01
      21    -1     0     0   502   501  0.000000000E+00  0.000000000E+00  2.254835776E-03  2.254835776E-03  0.000000000E+00  0.00000E+00  9.000E+00
       2    -1     0     0   501     0  0.000000000E+00  0.000000000E+00 -6.101538475E+02  6.101538475E+02  0.000000000E+00  0.00000E+00  9.000E+00
      23     2     1     2     0     0 -5.230955134E-01 -6.643607693E-01 -4.773426414E+02  4.773444592E+02  1.010183417E+00  0.00000E+00  9.000E+00
      11     1     3     3     0     0 -6.606374671E-01 -2.597433900E-01 -4.005286195E+02  4.005292485E+02  5.110000000E-04  0.00000E+00  9.000E+00
     -11     1     3     3     0     0  1.375419537E-01 -4.046173793E-01 -7.681402189E+01  7.681521069E+01  5.110000000E-04  0.00000E+00  9.000E+00
       2     1     1     2   502     0  5.230955134E-01  6.643607693E-01 -1.328089513E+02  1.328116431E+02  0.000000000E+00  0.00000E+00  9.000E+00
#rwgt            1          17  -41660646.117960893                3     2213972           0
<weights>
-.11145E+08
-.11280E+08
-.10937E+08
-.13710E+08
-.87637E+07
-.91702E+07
-.13910E+08
-.11132E+08
-.11158E+08
-.11163E+08
-.11146E+08
-.10956E+08
-.11357E+08
-.11154E+08
-.11149E+08
-.11200E+08
-.11055E+08
-.11525E+08
-.10620E+08
-.10542E+08
-.11572E+08
-.11112E+08
-.11173E+08
-.10999E+08
-.11257E+08
-.11428E+08
-.10972E+08
-.10669E+08
-.11686E+08
-.11058E+08
-.11200E+08
-.11048E+08
-.11241E+08
-.11607E+08
-.10588E+08
-.11080E+08
-.11205E+08
-.11136E+08
-.11163E+08
-.11281E+08
-.11025E+08
-.11127E+08
-.11164E+08
-.11135E+08
-.11156E+08
</weights>
</event>
<event>
      7  10001  1.11453E+07  2.03298E+00 -1.00000E+00  3.50964E-01
      21    -1     0     0   502   501  0.000000000E+00  0.000000000E+00  4.504187363E+01  4.504187363E+01  0.000000000E+00  0.00000E+00  9.000E+00
      21    -1     0     0   501   511  0.000000000E+00  0.000000000E+00 -1.561107052E+01  1.561107052E+01  0.000000000E+00  0.00000E+00  9.000E+00
      23     2     1     2     0     0  1.201665224E+00 -6.300259762E+00  3.147369156E+01  3.255897885E+01  5.325088866E+00  0.00000E+00  9.000E+00
      11     1     3     3     0     0  1.511336077E+00 -6.363442963E+00  1.924174595E+01  2.032295083E+01  5.110000000E-04  0.00000E+00  9.000E+00
     -11     1     3     3     0     0 -3.096708533E-01  6.318320088E-02  1.223194561E+01  1.223602802E+01  5.110000000E-04  0.00000E+00  9.000E+00
       4     1     1     2   502     0 -6.781701881E-01  8.264680603E+00  1.162287184E+01  1.427781531E+01  0.000000000E+00  0.00000E+00  9.000E+00
      -4     1     1     2     0   511 -5.234950358E-01 -1.964420841E+00 -1.366576029E+01  1.381614999E+01  0.000000000E+00  0.00000E+00  9.000E+00
#rwgt            1          19   467792.20083709847                3     2214512           0
<weights>
0.11145E+08
0.11741E+08
0.10488E+08
0.12231E+08
0.98880E+07
0.10622E+08
0.11682E+08
0.11205E+08
0.11081E+08
0.10796E+08
0.10783E+08
0.10938E+08
0.11007E+08
0.10812E+08
0.10794E+08
0.11234E+08
0.11225E+08
0.11505E+08
0.11508E+08
0.11505E+08
0.11476E+08
0.11537E+08
0.11555E+08
0.11357E+08
0.11390E+08
0.11363E+08
0.11104E+08
0.11485E+08
0.11367E+08
0.11513E+08
0.11548E+08
0.11192E+08
0.11218E+08
0.11129E+08
0.11188E+08
0.11250E+08
0.11058E+08
0.11135E+08
0.11062E+08
0.11173E+08
0.11122E+08
0.11177E+08
0.11112E+08
0.11539E+08
0.10784E+08
</weights>
</event>
<event>
      6  10001 -1.11453E+07  8.94427E-01 -1.00000E+00  2.07752E-01
       2    -1     0     0   501     0  0.000000000E+00  0.000000000E+00  2.334004904E+01  2.334004904E+01  0.000000000E+00  0.00000E+00  9.000E+00
      -2    -1     0     0     0   502  0.000000000E+00  0.000000000E+00 -2.436610085E-02  2.436610085E-02  0.000000000E+00  0.00000E+00  9.000E+00
      23     2     1     2     0     0 -2.577289881E-02  2.856982760E-01  2.151923666E+01  2.154521010E+01  1.017960740E+00  0.00000E+00  9.000E+00
      11     1     3     3     0     0  2.696229941E-01  4.845818438E-01  7.117043721E+00  7.138615252E+00  5.110000000E-04  0.00000E+00  9.000E+00
     -11     1     3     3     0     0 -2.953958929E-01 -1.988835678E-01  1.440219294E+01  1.440659485E+01  5.110000000E-04  0.00000E+00  9.000E+00
      21     1     1     2   501   502  2.577289881E-02 -2.856982760E-01  1.796446273E+00  1.819205035E+00  4.214684851E-08  0.00000E+00  9.000E+00
#rwgt            1          23  -1383118.1257325974                3     2235106           0
<weights>
-.11145E+08
-.13199E+08
-.90142E+07
-.16045E+08
-.72228E+07
-.91683E+07
-.13910E+08
-.11124E+08
-.11185E+08
-.10816E+08
-.10798E+08
-.10962E+08
-.10993E+08
-.10831E+08
-.10809E+08
-.11220E+08
-.11230E+08
-.11478E+08
-.11516E+08
-.11503E+08
-.11455E+08
-.11520E+08
-.11534E+08
-.11438E+08
-.11320E+08
-.11298E+08
-.11354E+08
-.11455E+08
-.11377E+08
-.11501E+08
-.11530E+08
-.11183E+08
-.11223E+08
-.11136E+08
-.11181E+08
-.11175E+08
-.11139E+08
-.11153E+08
-.11064E+08
-.11170E+08
-.11124E+08
-.11192E+08
-.11097E+08
-.11520E+08
-.10802E+08
</weights>
</event>
<event>
      6  10001 -1.11453E+07  8.94427E-01 -1.00000E+00  4.27725E-01
      -4    -1     0     0     0   502  0.000000000E+00  0.000000000E+00  1.684745383E+00  1.684745383E+00  0.000000000E+00  0.00000E+00  9.000E+00
      21    -1     0     0   502   501  0.000000000E+00  0.000000000E+00 -2.995664195E-01  2.995664195E-01  0.000000000E+00  0.00000E+00  9.000E+00
      23     2     1     2     0     0 -2.479036335E-01  1.148251143E-01  1.307869094E+00  1.700379004E+00  1.051725330E+00  0.00000E+00  9.000E+00
      11     1     3     3     0     0  3.971594164E-01  1.838819638E-01  5.436907047E-01  6.979599002E-01  5.110000000E-04  0.00000E+00  9.000E+00
     -11     1     3     3     0     0 -6.450630499E-01 -6.905684951E-02  7.641783897E-01  1.002419104E+00  5.110000000E-04  0.00000E+00  9.000E+00
      -4     1     1     2     0   501  2.479036335E-01 -1.148251143E-01  7.730986908E-02  2.839327988E-01  0.000000000E+00  0.00000E+00  9.000E+00
#rwgt            1           3  -797417.65617065830                3     2236883           0
<weights>
-.11145E+08
-.10652E+08
-.11007E+08
-.16598E+08
-.69433E+07
-.69507E+07
-.17317E+08
-.11198E+08
-.11089E+08
-.11036E+08
-.11072E+08
-.11046E+08
-.11153E+08
-.11067E+08
-.11077E+08
-.11191E+08
-.11096E+08
-.11212E+08
-.11197E+08
-.11195E+08
-.11208E+08
-.11203E+08
-.11234E+08
-.11121E+08
-.11245E+08
-.11197E+08
-.11029E+08
-.11178E+08
-.11163E+08
-.11173E+08
-.11212E+08
-.11124E+08
-.11185E+08
-.11144E+08
-.11146E+08
-.11228E+08
-.11068E+08
-.10956E+08
-.11282E+08
-.11097E+08
-.11188E+08
-.11145E+08
-.11146E+08
-.11231E+08
-.11058E+08
</weights>
</event>
<event>
      6  10001 -1.11453E+07  8.94427E-01 -1.00000E+00  3.82208E-01
      21    -1     0     0   502   501  0.000000000E+00  0.000000000E+00  1.832984861E-02  1.832984861E-02  0.000000000E+00  0.00000E+00  9.000E+00
       2    -1     0     0   501     0  0.000000000E+00  0.000000000E+00 -1.173357832E+02  1.173357832E+02  0.000000000E+00  0.00000E+00  9.000E+00
      23     2     1     2     0     0  1.491460108E-01 -3.246022644E-01 -1.146446006E+02  1.146574942E+02  1.681941661E+00  0.00000E+00  9.000E+00
      11     1     3     3     0     0  4.718605138E-01 -9.730286503E-02 -1.080593455E+02  1.080604196E+02  5.110000000E-04  0.00000E+00  9.000E+00
     -11     1     3     3     0     0 -3.227145030E-01 -2.272993993E-01 -6.585255045E+00  6.597074650E+00  5.110000000E-04  0.00000E+00  9.000E+00
       2     1     1     2   502     0 -1.491460108E-01  3.246022644E-01 -2.672852754E+00  2.696618810E+00  0.000000000E+00  0.00000E+00  9.000E+00
#rwgt            1          17  -21822121.238161568                3     2250119           0
<weights>
-.11145E+08
-.12287E+08
-.98599E+07
-.14933E+08
-.79003E+07
-.91702E+07
-.13910E+08
-.11145E+08
-.11145E+08
-.11160E+08
-.11170E+08
-.11150E+08
-.11137E+08
-.11171E+08
-.11171E+08
-.11214E+08
-.11009E+08
-.11114E+08
-.11109E+08
-.11110E+08
-.11112E+08
-.11111E+08
-.11116E+08
-.11222E+08
-.11020E+08
-.11071E+08
-.11176E+08
-.11168E+08
-.11027E+08
-.11121E+08
-.11113E+08
-.11111E+08
-.11168E+08
-.11120E+08
-.11171E+08
-.11138E+08
-.11147E+08
-.11143E+08
-.11154E+08
-.11113E+08
-.11169E+08
-.11187E+08
-.11101E+08
-.11118E+08
-.11168E+08
</weights>
</event>
<event>
      7  10001  1.11453E+07  2.23627E+00 -1.00000E+00  3.34430E-01
      21    -1     0     0   511   501  0.000000000E+00  0.000000000E+00  2.196610439E+01  2.196610439E+01  0.000000000E+00  0.00000E+00  9.000E+00
       2    -1     0     0   501     0  0.000000000E+00  0.000000000E+00 -9.491121774E+01  9.491121774E+01  0.000000000E+00  0.00000E+00  9.000E+00
      23     2     1     2     0     0  2.979008357E-01  5.551684405E-01 -8.203065650E+01  8.203919938E+01  1.002333004E+00  0.00000E+00  9.000E+00
      11     1     3     3     0     0  1.542045214E-01  8.455911736E-01 -6.043736256E+01  6.044347439E+01  5.110000000E-04  0.00000E+00  9.000E+00
     -11     1     3     3     0     0  1.436963143E-01 -2.904227331E-01 -2.159329394E+01  2.159572498E+01  5.110000000E-04  0.00000E+00  9.000E+00
       2     1     1     2   502     0  1.435372953E+00  8.578624152E-01 -1.276468914E+01  1.287375284E+01  0.000000000E+00  0.00000E+00  9.000E+00
      21     1     1     2   511   502 -1.733273788E+00 -1.413030856E+00  2.185023229E+01  2.196436990E+01  5.840038640E-07  0.00000E+00  9.000E+00
#rwgt            1          17   3648518.9553375472                3     2250999           0
<weights>
0.11145E+08
0.12934E+08
0.92968E+07
0.11960E+08
0.98245E+07
0.11673E+08
0.10068E+08
0.11186E+08
0.11105E+08
0.11089E+08
0.11133E+08
0.11199E+08
0.11013E+08
0.11123E+08
0.11129E+08
0.11095E+08
0.11188E+08
0.11003E+08
0.11359E+08
0.11383E+08
0.10986E+08
0.11165E+08
0.11147E+08
0.11282E+08
0.11034E+08
0.11042E+08
0.11198E+08
0.11379E+08
0.10823E+08
0.11178E+08
0.11129E+08
0.11163E+08
0.11129E+08
0.10997E+08
0.11338E+08
0.11124E+08
0.11162E+08
0.11061E+08
0.11239E+08
0.11064E+08
0.11210E+08
0.11230E+08
0.11055E+08
0.11170E+08
0.11116E+08
</weights>
</event>
<event>
      6  10001 -1.11453E+07  8.94427E-01 -1.00000E+00  4.49758E-01
       4    -1     0     0   501     0  0.000000000E+00  0.000000000E+00  9.157019900E-03  9.157019900E-03  0.000000000E+00  0.00000E+00  9.000E+00
      -4    -1     0     0     0   502  0.000000000E+00  0.000000000E+00 -2.705646336E+02  2.705646336E+02  0.000000000E+00  0.00000E+00  9.000E+00
      23     2     1     2     0     0 -2.596522295E-01 -1.478799536E-01 -1.207355920E+02  1.207536080E+02  2.064314727E+00  0.00000E+00  9.000E+00
      11     1     3     3     0     0 -8.341782464E-01 -3.248201166E-01 -2.482957700E+01  2.484570900E+01  5.110000000E-04  0.00000E+00  9.000E+00
     -11     1     3     3     0     0  5.745260168E-01  1.769401630E-01 -9.590601498E+01  9.590789904E+01  5.110000000E-04  0.00000E+00  9.000E+00
      21     1     1     2   501   502  2.596522295E-01  1.478799536E-01 -1.498198846E+02  1.498201826E+02  0.000000000E+00  0.00000E+00  9.000E+00
#rwgt            1          27  -71400.178942015526                3     2256076           0
<weights>
-.11145E+08
-.12666E+08
-.94036E+07
-.15394E+08
-.75347E+07
-.91702E+07
-.13910E+08
-.10868E+08
-.11417E+08
-.11899E+08
-.11539E+08
-.11227E+08
-.11707E+08
-.11681E+08
-.11653E+08
-.11022E+08
-.11097E+08
-.10666E+08
-.10633E+08
-.10644E+08
-.10697E+08
-.10634E+08
-.10562E+08
-.11130E+08
-.10480E+08
-.10689E+08
-.11334E+08
-.10788E+08
-.10863E+08
-.10773E+08
-.10612E+08
-.11296E+08
-.10828E+08
-.11022E+08
-.11268E+08
-.10906E+08
-.11352E+08
-.11824E+08
-.10475E+08
-.10919E+08
-.11360E+08
-.10987E+08
-.11315E+08
-.10548E+08
-.11719E+08
</weights>
</event>
<event>
      6  10001 -1.11453E+07  8.94427E-01 -1.00000E+00  3.17597E-01
       2    -1     0     0   501     0  0.000000000E+00  0.000000000E+00  2.333101806E+02  2.333101806E+02  0.000000000E+00  0.00000E+00  9.000E+00
      21    -1     0     0   502   501  0.000000000E+00  0.000000000E+00 -1.758414824E-02  1.758414824E-02  0.000000000E+00  0.00000E+00  9.000E+00
      23     2     1     2     0     0 -2.667796966E-01  1.670312752E-01  2.313683938E+02  2.313779886E+02  2.083489325E+00  0.00000E+00  9.000E+00
      11     1     3     3     0     0 -1.954316357E-01 -1.973295489E-01  4.146047105E+00  4.155338655E+00  5.110000000E-04  0.00000E+00  9.000E+00
     -11     1     3     3     0     0 -7.134806089E-02  3.643608241E-01  2.272223467E+02  2.272226500E+02  5.110000000E-04  0.00000E+00  9.000E+00
       2     1     1     2   502     0  2.667796966E-01 -1.670312752E-01  1.924202734E+00  1.949776144E+00  0.000000000E+00  0.00000E+00  9.000E+00
#rwgt            1          24  -40418046.692437574                3     2256549           0
<weights>
-.11145E+08
-.12357E+08
-.97229E+07
-.15031E+08
-.77909E+07
-.91626E+07
-.13909E+08
-.11172E+08
-.11120E+08
-.10824E+08
-.10815E+08
-.10962E+08
-.11007E+08
-.10842E+08
-.10825E+08
-.11226E+08
-.11210E+08
-.11461E+08
-.11502E+08
-.11490E+08
-.11438E+08
-.11500E+08
-.11519E+08
-.11410E+08
-.11328E+08
-.11287E+08
-.11349E+08
-.11433E+08
-.11371E+08
-.11477E+08
-.11512E+08
-.11183E+08
-.11217E+08
-.11138E+08
-.11177E+08
-.11209E+08
-.11101E+08
-.11131E+08
-.11085E+08
-.11166E+08
-.11128E+08
-.11185E+08
-.11104E+08
-.11504E+08
-.10815E+08
</weights>
</event>
<event>
      7  10001  1.11453E+07  4.67717E+00 -1.00000E+00  2.46087E-01
      21    -1     0     0   501   511  0.000000000E+00  0.000000000E+00  9.372046007E+00  9.372046007E+00  0.000000000E+00  0.00000E+00  9.000E+00
      21    -1     0     0   502   501  0.000000000E+00  0.000000000E+00 -1.666665086E+01  1.666665086E+01  0.000000000E+00  0.00000E+00  9.000E+00
      23     2     1     2     0     0 -2.597720829E+00  1.489483407E+00 -7.546636266E+00  8.376926916E+00  2.062636976E+00  0.00000E+00  9.000E+00
      11     1     3     3     0     0  3.361941273E-01  1.930896614E-02 -9.741818287E-01  1.030742365E+00  5.110000000E-04  0.00000E+00  9.000E+00
     -11     1     3     3     0     0 -2.933914956E+00  1.470174441E+00 -6.572454438E+00  7.346184551E+00  5.110000000E-04  0.00000E+00  9.000E+00
       1     1     1     2   502     0  5.485288440E+00  2.189907236E+00 -6.920989924E+00  9.098581456E+00  0.000000000E+00  0.00000E+00  9.000E+00
      -1     1     1     2     0   511 -2.887567612E+00 -3.679390643E+00  7.173021334E+00  8.563188499E+00  0.000000000E+00  0.00000E+00  9.000E+00
#rwgt            1          22   253649.85936933148                3     2257959           0
<weights>
0.11145E+08
0.12001E+08
0.10211E+08
0.12313E+08
0.97667E+07
0.10755E+08
0.11477E+08
0.11232E+08
0.11055E+08
0.10792E+08
0.10824E+08
0.10939E+08
0.11021E+08
0.10824E+08
0.10828E+08
0.11229E+08
0.11201E+08
0.11459E+08
0.11492E+08
0.11489E+08
0.11434E+08
0.11481E+08
0.11541E+08
0.11284E+08
0.11428E+08
0.11371E+08
0.11055E+08
0.11436E+08
0.11318E+08
0.11440E+08
0.11498E+08
0.11158E+08
0.11237E+08
0.11143E+08
0.11166E+08
0.11281E+08
0.11028E+08
0.10974E+08
0.11195E+08
0.11150E+08
0.11142E+08
0.11173E+08
0.11117E+08
0.11509E+08
0.10807E+08
</weights>
</event>
<event>
      7  10001  1.11453E+07  1.38600E+00 -1.00000E+00  4.50818E-01
       2    -1     0     0   501     0  0.000000000E+00  0.000000000E+00  5.002172450E+00  5.002172450E+00  0.000000000E+00  0.00000E+00  9.000E+00
      21    -1     0     0   511   501  0.000000000E+00  0.000000000E+00 -1.010310750E+02  1.010310750E+02  0.000000000E+00  0.00000E+00  9.000E+00
      23     2     1     2     0     0  6.167417205E-01 -2.348177961E-01  4.568767623E+00  4.962071503E+00  1.820166547E+00  0.00000E+00  9.000E+00
      11     1     3     3     0     0 -1.192539012E-01  7.165854728E-01  1.925816576E+00  2.058272571E+00  5.110000000E-04  0.00000E+00  9.000E+00
     -11     1     3     3     0     0  7.359956217E-01 -9.514032689E-01  2.642951047E+00  2.903798931E+00  5.110000000E-04  0.00000E+00  9.000E+00
       2     1     1     2   502     0  4.016329804E-01  1.174975458E+00 -1.430236690E+00  1.894057382E+00  0.000000000E+00  0.00000E+00  9.000E+00
      21     1     1     2   511   502 -1.018374701E+00 -9.401576622E-01 -9.916743344E+01  9.917711852E+01  1.348699152E-06  0.00000E+00  9.000E+00
#rwgt            1          24   3027382.8422062900                3     2263500           0
<weights>
0.11145E+08
0.12466E+08
0.97174E+07
0.12591E+08
0.94396E+07
0.10894E+08
0.11263E+08
0.11201E+08
0.11085E+08
0.10762E+08
0.10746E+08
0.10929E+08
0.10978E+08
0.10780E+08
0.10757E+08
0.11244E+08
0.11230E+08
0.11539E+08
0.11551E+08
0.11547E+08
0.11508E+08
0.11579E+08
0.11595E+08
0.11407E+08
0.11391E+08
0.11348E+08
0.11177E+08
0.11511E+08
0.11409E+08
0.11555E+08
0.11592E+08
0.11200E+08
0.11224E+08
0.11132E+08
0.11188E+08
0.11238E+08
0.11073E+08
0.11153E+08
0.11044E+08
0.11182E+08
0.11115E+08
0.11189E+08
0.11100E+08
0.11579E+08
0.10747E+08
</weights>
</event>
<event>
      7  10001  1.11453E+07  2.07139E+00 -1.00000E+00  3.47575E-01
      21    -1     0     0   502   501  0.000000000E+00  0.000000000E+00  5.841498935E-01  5.841498935E-01  0.000000000E+00  0.00000E+00  9.000E+00
       2    -1     0     0   511     0  0.000000000E+00  0.000000000E+00 -9.243194027E+01  9.243194027E+01  0.000000000E+00  0.00000E+00  9.000E+00
      23     2     1     2     0     0 -1.262675397E+00 -3.030468517E+00 -6.217675261E+01  6.244527956E+01  4.763012223E+00  0.00000E+00  9.000E+00
      11     1     3     3     0     0  1.184781172E+00 -2.259632151E+00 -1.645952907E+01  1.665610222E+01  5.110000000E-04  0.00000E+00  9.000E+00
     -11     1     3     3     0     0 -2.447456569E+00 -7.708363662E-01 -4.571722355E+01  4.578917734E+01  5.110000000E-04  0.00000E+00  9.000E+00
       2     1     1     2   502     0  7.400233829E-01  1.026095403E+00 -5.555248505E-01  1.381707003E+00  0.000000000E+00  0.00000E+00  9.000E+00
      21     1     1     2   511   501  5.226520139E-01  2.004373114E+00 -2.911551292E+01  2.918910360E+01  0.000000000E+00  0.00000E+00  9.000E+00
#rwgt            1          17   2614519.7977560954                3     2359924           0
<weights>
0.11145E+08
0.12172E+08
0.10039E+08
0.12221E+08
0.98242E+07
0.10957E+08
0.11167E+08
0.11191E+08
0.11100E+08
0.11072E+08
0.11117E+08
0.11176E+08
0.11024E+08
0.11106E+08
0.11114E+08
0.11083E+08
0.11216E+08
0.11038E+08
0.11352E+08
0.11371E+08
0.11024E+08
0.11179E+08
0.11167E+08
0.11263E+08
0.11077E+08
0.11086E+08
0.11174E+08
0.11362E+08
0.10867E+08
0.11184E+08
0.11147E+08
0.11156E+08
0.11141E+08
0.11029E+08
0.11302E+08
0.11112E+08
0.11176E+08
0.11038E+08
0.11259E+08
0.11070E+08
0.11205E+08
0.11224E+08
0.11061E+08
0.11187E+08
0.11100E+08
</weights>
</event>
<event>
      6  10001 -1.11453E+07  8.94427E-01 -1.00000E+00  2.54037E-01
      21    -1     0     0   502   501  0.000000000E+00  0.000000000E+00  1.686401609E-02  1.686401609E-02  0.000000000E+00  0.00000E+00  9.000E+00
       1    -1     0     0   501     0  0.000000000E+00  0.000000000E+00 -7.035642413E+02  7.035642413E+02  0.000000000E+00  0.00000E+00  9.000E+00
      23     2     1     2     0     0 -1.302078923E-02  3.956562534E-01 -7.006335071E+02  7.006404671E+02  3.097775729E+00  0.00000E+00  9.000E+00
      11     1     3     3     0     0  8.313243752E-02  1.085628963E+00 -9.032128055E+01  9.032784301E+01  5.110000000E-04  0.00000E+00  9.000E+00
     -11     1     3     3     0     0 -9.615322675E-02 -6.899727101E-01 -6.103122265E+02  6.103126241E+02  5.110000000E-04  0.00000E+00  9.000E+00
       1     1     1     2   502     0  1.302078923E-02 -3.956562534E-01 -2.913870158E+00  2.940638147E+00  0.000000000E+00  0.00000E+00  9.000E+00
#rwgt            1          16  -19159213.531910829                3     2373712           0
<weights>
-.11145E+08
-.10782E+08
-.11479E+08
-.13105E+08
-.91974E+07
-.91702E+07
-.13910E+08
-.11391E+08
-.10917E+08
-.10983E+08
-.11446E+08
-.12656E+08
-.96884E+07
-.11161E+08
-.11169E+08
-.10627E+08
-.11560E+08
-.96081E+07
-.13258E+08
-.13680E+08
-.93758E+07
-.11245E+08
-.10972E+08
-.11838E+08
-.10384E+08
-.98651E+07
-.11968E+08
-.13340E+08
-.88722E+07
-.11469E+08
-.10876E+08
-.10850E+08
-.11446E+08
-.96096E+07
-.12981E+08
-.11110E+08
-.11179E+08
-.11096E+08
-.11227E+08
-.11426E+08
-.10896E+08
-.11112E+08
-.11179E+08
-.11119E+08
-.11173E+08
</weights>
</event>
<event>
      6  10001 -1.11453E+07  8.94427E-01 -1.00000E+00  1.53246E-01
      21    -1     0     0   502   501  0.000000000E+00  0.000000000E+00  4.955148016E+01  4.955148016E+01  0.000000000E+00  0.00000E+00  9.000E+00
      -5    -1     0     0     0   502  0.000000000E+00  0.000000000E+00 -2.293154938E-02  2.293154938E-02  0.000000000E+00  0.00000E+00  9.000E+00
      23     2     1     2     0     0  1.833595146E-02 -3.641009062E-01  3.935740633E+01  3.939673806E+01  1.721810341E+00  0.00000E+00  9.000E+00
      11     1     3     3     0     0  2.318951435E-01  3.136426654E-01  2.323387116E+00  2.355902169E+00  5.110000000E-04  0.00000E+00  9.000E+00
     -11     1     3     3     0     0 -2.135591920E-01 -6.777435716E-01  3.703401922E+01  3.704083589E+01  5.110000000E-04  0.00000E+00  9.000E+00
      -5     1     1     2     0   501 -1.833595146E-02  3.641009062E-01  1.017114228E+01  1.017767365E+01  0.000000000E+00  0.00000E+00  9.000E+00
#rwgt            1          11  -324409.49838093232                3     2374595           0
<weights>
-.11145E+08
-.12810E+08
-.92391E+07
-.15567E+08
-.74028E+07
-.91718E+07
-.13910E+08
-.11170E+08
-.11121E+08
-.10814E+08
-.10800E+08
-.10958E+08
-.10999E+08
-.10830E+08
-.10811E+08
-.11228E+08
-.11217E+08
-.11476E+08
-.11518E+08
-.11506E+08
-.11451E+08
-.11517E+08
-.11535E+08
-.11425E+08
-.11332E+08
-.11292E+08
-.11358E+08
-.11449E+08
-.11383E+08
-.11496E+08
-.11530E+08
-.11188E+08
-.11217E+08
-.11136E+08
-.11180E+08
-.11207E+08
-.11103E+08
-.11148E+08
-.11068E+08
-.11171E+08
-.11124E+08
-.11187E+08
-.11102E+08
-.11519E+08
-.10802E+08
</weights>
</event>
<event>
      6  10001  1.11453E+07  8.94427E-01 -1.00000E+00  6.04733E-01
       2    -1     0     0   501     0  0.000000000E+00  0.000000000E+00  6.218460886E+00  6.218460886E+00  0.000000000E+00  0.00000E+00  9.000E+00
      -2    -1     0     0     0   502  0.000000000E+00  0.000000000E+00 -2.197745444E+00  2.197745444E+00  0.000000000E+00  0.00000E+00  9.000E+00
      23     2     1     2     0     0  8.725249110E-01 -1.920248336E-01  4.622716504E+00  7.338904823E+00  5.629550859E+00  0.00000E+00  9.000E+00
      11     1     3     3     0     0  1.156992881E+00 -1.866807117E+00 -2.196307234E-01  2.207224333E+00  5.110000000E-04  0.00000E+00  9.000E+00
     -11     1     3     3     0     0 -2.844679703E-01  1.674782283E+00  4.842347228E+00  5.131680491E+00  5.110000000E-04  0.00000E+00  9.000E+00
      21     1     1     2   501   502 -8.725249110E-01  1.920248336E-01 -6.020010618E-01  1.077301506E+00  1.053671213E-08  0.00000E+00  9.000E+00
#rwgt            1          23   755747.91321032436                3     2376504           0
<weights>
0.11145E+08
0.13391E+08
0.90807E+07
0.10890E+08
0.10745E+08
0.12781E+08
0.83673E+07
0.10916E+08
0.11385E+08
0.10793E+08
0.10724E+08
0.10978E+08
0.10904E+08
0.10788E+08
0.10743E+08
0.11134E+08
0.11404E+08
0.11582E+08
0.11517E+08
0.11494E+08
0.11563E+08
0.11605E+08
0.11585E+08
0.11512E+08
0.11290E+08
0.11464E+08
0.11052E+08
0.11593E+08
0.11309E+08
0.11605E+08
0.11590E+08
0.11145E+08
0.11285E+08
0.11158E+08
0.11173E+08
0.10847E+08
0.11485E+08
0.11243E+08
0.10953E+08
0.11189E+08
0.11101E+08
0.11262E+08
0.11021E+08
0.11577E+08
0.10754E+08
</weights>
</event>
<event>
      6  10001 -1.11453E+07  8.94427E-01 -1.00000E+00  2.14809E-01
      21    -1     0     0   502   501  0.000000000E+00  0.000000000E+00  1.578802326E-02  1.578802326E-02  0.000000000E+00  0.00000E+00  9.000E+00
       2    -1     0     0   501     0  0.000000000E+00  0.000000000E+00 -8.721391623E+02  8.721391623E+02  0.000000000E+00  0.00000E+00  9.000E+00
      23     2     1     2     0     0  3.452635292E-01 -1.311644221E+00 -8.406542943E+02  8.406566550E+02  1.459230067E+00  0.00000E+00  9.000E+00
      11     1     3     3     0     0 -2.741451127E-01 -1.101930115E+00 -3.323192807E+02  3.323212207E+02  5.110000000E-04  0.00000E+00  9.000E+00
     -11     1     3     3     0     0  6.194086419E-01 -2.097141061E-01 -5.083350136E+02  5.083354343E+02  5.110000000E-04  0.00000E+00  9.000E+00
       2     1     1     2   502     0 -3.452635292E-01  1.311644221E+00 -3.146907992E+01  3.149829533E+01  0.000000000E+00  0.00000E+00  9.000E+00
#rwgt            1          17  -63254101.835730553                3     2379219           0
<weights>
-.11145E+08
-.11523E+08
-.10562E+08
-.14005E+08
-.84626E+07
-.91702E+07
-.13910E+08
-.11137E+08
-.11153E+08
-.11163E+08
-.11136E+08
-.10910E+08
-.11406E+08
-.11152E+08
-.11145E+08
-.10869E+08
-.11544E+08
-.11599E+08
-.10535E+08
-.10434E+08
-.11663E+08
-.11126E+08
-.11162E+08
-.10907E+08
-.11359E+08
-.11645E+08
-.10848E+08
-.10517E+08
-.11890E+08
-.11046E+08
-.11214E+08
-.11174E+08
-.11113E+08
-.11799E+08
-.10378E+08
-.11042E+08
-.11241E+08
-.11114E+08
-.11190E+08
-.11336E+08
-.10977E+08
-.11114E+08
-.11178E+08
-.11140E+08
-.11151E+08
</weights>
</event>
<event>
      6  10001 -1.11453E+07  8.94427E-01 -1.00000E+00  3.79291E-01
       1    -1     0     0   501     0  0.000000000E+00  0.000000000E+00  8.320289220E+02  8.320289220E+02  0.000000000E+00  0.00000E+00  9.000E+00
      21    -1     0     0   502   501  0.000000000E+00  0.000000000E+00 -2.484018374E-03  2.484018374E-03  0.000000000E+00  0.00000E+00  9.000E+00
      23     2     1     2     0     0  9.168285004E-02  4.144683794E-01  8.027720095E+02  8.027738980E+02  1.688751097E+00  0.00000E+00  9.000E+00
      11     1     3     3     0     0  4.675751398E-01  8.320433580E-01  6.724613942E+02  6.724620715E+02  5.110000000E-04  0.00000E+00  9.000E+00
     -11     1     3     3     0     0 -3.758922898E-01 -4.175749786E-01  1.303106153E+02  1.303118265E+02  5.110000000E-04  0.00000E+00  9.000E+00
       1     1     1     2   502     0 -9.168285004E-02 -4.144683794E-01  2.925442850E+01  2.925750804E+01  0.000000000E+00  0.00000E+00  9.000E+00
#rwgt            1          22  -4598175.7375010811                3     2379951           0
<weights>
-.11145E+08
-.10828E+08
-.11365E+08
-.13149E+08
-.91058E+07
-.91792E+07
-.13911E+08
-.11169E+08
-.11124E+08
-.10821E+08
-.10810E+08
-.10961E+08
-.11004E+08
-.10839E+08
-.10821E+08
-.11226E+08
-.11213E+08
-.11464E+08
-.11509E+08
-.11496E+08
-.11441E+08
-.11505E+08
-.11524E+08
-.11420E+08
-.11327E+08
-.11287E+08
-.11375E+08
-.11438E+08
-.11375E+08
-.11483E+08
-.11517E+08
-.11184E+08
-.11217E+08
-.11138E+08
-.11178E+08
-.11206E+08
-.11104E+08
-.11136E+08
-.11080E+08
-.11167E+08
-.11127E+08
-.11186E+08
-.11103E+08
-.11509E+08
-.10811E+08
</weights>
</event>
<event>
      6  10001 -1.11453E+07  8.94427E-01 -1.00000E+00  3.46671E-01
       2    -1     0     0   501     0  0.000000000E+00  0.000000000E+00  7.451911796E+02  7.451911796E+02  0.000000000E+00  0.00000E+00  9.000E+00
      21    -1     0     0   502   501  0.000000000E+00  0.000000000E+00 -5.142429931E-03  5.142429931E-03  0.000000000E+00  0.00000E+00  9.000E+00
      23     2     1     2     0     0  8.580935133E-01  1.301918406E-01  6.965445177E+02  6.965470601E+02  1.669867746E+00  0.00000E+00  9.000E+00
      11     1     3     3     0     0 -7.345561864E-02  7.072262236E-01  3.752764115E+02  3.752770851E+02  5.110000000E-04  0.00000E+00  9.000E+00
     -11     1     3     3     0     0  9.315491320E-01 -5.770343830E-01  3.212681062E+02  3.212699750E+02  5.110000000E-04  0.00000E+00  9.000E+00
       2     1     1     2   502     0 -8.580935133E-01 -1.301918406E-01  4.864151939E+01  4.864926190E+01  0.000000000E+00  0.00000E+00  9.000E+00
#rwgt            1          24  -46258643.806509048                3     2380147           0
<weights>
-.11144E+08
-.12009E+08
-.99695E+07
-.14605E+08
-.79884E+07
-.91634E+07
-.13908E+08
-.11180E+08
-.11109E+08
-.10843E+08
-.10846E+08
-.10969E+08
-.11023E+08
-.10866E+08
-.10855E+08
-.11221E+08
-.11192E+08
-.11428E+08
-.11464E+08
-.11454E+08
-.11407E+08
-.11460E+08
-.11485E+08
-.11364E+08
-.11325E+08
-.11276E+08
-.11296E+08
-.11398E+08
-.11341E+08
-.11434E+08
-.11473E+08
-.11171E+08
-.11216E+08
-.11140E+08
-.11169E+08
-.11216E+08
-.11090E+08
-.11088E+08
-.11130E+08
-.11154E+08
-.11136E+08
-.11179E+08
-.11108E+08
-.11471E+08
-.10842E+08
</weights>
</event>
<event>
      7  10001  1.11453E+07  6.45175E+00 -1.00000E+00  2.19707E-01
      -2    -1     0     0     0   502  0.000000000E+00  0.000000000E+00  2.048814014E-01  2.048814014E-01  0.000000000E+00  0.00000E+00  9.000E+00
       2    -1     0     0   501     0  0.000000000E+00  0.000000000E+00 -7.004493230E+01  7.004493230E+01  0.000000000E+00  0.00000E+00  9.000E+00
      23     2     1     2     0     0 -4.784393870E-01 -4.619266055E-01 -5.327100232E+01  5.329140045E+01  1.315824479E+00  0.00000E+00  9.000E+00
      11     1     3     3     0     0 -1.743838982E-01 -4.996265986E-01 -7.215559863E+00  7.234938899E+00  5.110000000E-04  0.00000E+00  9.000E+00
     -11     1     3     3     0     0 -3.040554888E-01  3.769999314E-02 -4.605544246E+01  4.605646156E+01  5.110000000E-04  0.00000E+00  9.000E+00
       2     1     1     2   501     0 -9.639510026E-01 -6.952623809E-02 -1.341447406E+01  1.344924346E+01  0.000000000E+00  0.00000E+00  9.000E+00
      -2     1     1     2     0   502  1.442390390E+00  5.314528436E-01 -3.154574524E+00  3.509169787E+00  0.000000000E+00  0.00000E+00  9.000E+00
#rwgt            1           8   2961782.0087277852                3     2381285           0
<weights>
0.11145E+08
0.11609E+08
0.10608E+08
0.12617E+08
0.95193E+07
0.10197E+08
0.12334E+08
0.11177E+08
0.11114E+08
0.11104E+08
0.11139E+08
0.11172E+08
0.11060E+08
0.11133E+08
0.11137E+08
0.11123E+08
0.11148E+08
0.11050E+08
0.11276E+08
0.11290E+08
0.11040E+08
0.11152E+08
0.11142E+08
0.11251E+08
0.11050E+08
0.11071E+08
0.11179E+08
0.11304E+08
0.10905E+08
0.11160E+08
0.11130E+08
0.11144E+08
0.11145E+08
0.11050E+08
0.11269E+08
0.11125E+08
0.11162E+08
0.11071E+08
0.11230E+08
0.11079E+08
0.11198E+08
0.11212E+08
0.11074E+08
0.11160E+08
0.11126E+08
</weights>
</event>
<event>
      6  10001 -1.11453E+07  8.94427E-01 -1.00000E+00  5.82394E-01
      21    -1     0     0   502   501  0.000000000E+00  0.000000000E+00  6.756975226E-03  6.756975226E-03  0.000000000E+00  0.00000E+00  9.000E+00
       2    -1     0     0   501     0  0.000000000E+00  0.000000000E+00 -1.863423156E+02  1.863423156E+02  0.000000000E+00  0.00000E+00  9.000E+00
      23     2     1     2     0     0  4.416238591E-01 -5.262096712E-01 -1.225458373E+02  1.225556523E+02  1.390587705E+00  0.00000E+00  9.000E+00
      11     1     3     3     0     0  7.549105099E-01  1.279142766E-01 -7.968990931E+01  7.969358756E+01  5.110000000E-04  0.00000E+00  9.000E+00
     -11     1     3     3     0     0 -3.132866508E-01 -6.541239478E-01 -4.285592798E+01  4.286206470E+01  5.110000000E-04  0.00000E+00  9.000E+00
       2     1     1     2   502     0 -4.416238591E-01  5.262096712E-01 -6.378972137E+01  6.379342035E+01  0.000000000E+00  0.00000E+00  9.000E+00
#rwgt            1          17  -9047236.5384938978                3     2384226           0
<weights>
-.11145E+08
-.11967E+08
-.10218E+08
-.14544E+08
-.81868E+07
-.91702E+07
-.13910E+08
-.11131E+08
-.11158E+08
-.11173E+08
-.11171E+08
-.11114E+08
-.11189E+08
-.11173E+08
-.11172E+08
-.11289E+08
-.10911E+08
-.11203E+08
-.10990E+08
-.10976E+08
-.11209E+08
-.11104E+08
-.11131E+08
-.11192E+08
-.11043E+08
-.11111E+08
-.11154E+08
-.11064E+08
-.11158E+08
-.11106E+08
-.11130E+08
-.11074E+08
-.11206E+08
-.11200E+08
-.11066E+08
-.11140E+08
-.11146E+08
-.11170E+08
-.11121E+08
-.11149E+08
-.11138E+08
-.11171E+08
-.11118E+08
-.11115E+08
-.11173E+08
</weights>
</event>
<event>
      7  10001  1.11453E+07  1.35134E+01 -1.00000E+00  1.81451E-01
      -4    -1     0     0     0   502  0.000000000E+00  0.000000000E+00  4.965984610E-01  4.965984610E-01  0.000000000E+00  0.00000E+00  9.000E+00
      21    -1     0     0   502   501  0.000000000E+00  0.000000000E+00 -1.652000126E+02  1.652000126E+02  0.000000000E+00  0.00000E+00  9.000E+00
      23     2     1     2     0     0 -4.772249459E-01  1.134794639E+00 -1.126357434E+01  1.218503274E+01  4.482344638E+00  0.00000E+00  9.000E+00
      11     1     3     3     0     0 -2.006210865E+00  8.226162062E-01 -2.616083075E+00  3.397862618E+00  5.110000000E-04  0.00000E+00  9.000E+00
     -11     1     3     3     0     0  1.528985919E+00  3.121784324E-01 -8.647491262E+00  8.787170119E+00  5.110000000E-04  0.00000E+00  9.000E+00
      -4     1     1     2     0   511  8.158106460E-01 -2.430458617E-01 -5.241846873E+00  5.310515695E+00  0.000000000E+00  0.00000E+00  9.000E+00
      21     1     1     2   511   501 -3.385857001E-01 -8.917487769E-01 -1.481979929E+02  1.482010626E+02  1.907348633E-06  0.00000E+00  9.000E+00
#rwgt            2          41   482918.53483769408                3     2385468           0
<weights>
0.11145E+08
0.10172E+08
0.12131E+08
0.12363E+08
0.97200E+07
0.91702E+07
0.13910E+08
0.11086E+08
0.11202E+08
0.11364E+08
0.11312E+08
0.11140E+08
0.11367E+08
0.11369E+08
0.11347E+08
0.11108E+08
0.11063E+08
0.10954E+08
0.10876E+08
0.10874E+08
0.10973E+08
0.10934E+08
0.10855E+08
0.11099E+08
0.10897E+08
0.10992E+08
0.11191E+08
0.10982E+08
0.10992E+08
0.10950E+08
0.10917E+08
0.11141E+08
0.11080E+08
0.11120E+08
0.11161E+08
0.11124E+08
0.11157E+08
0.11177E+08
0.11162E+08
0.11032E+08
0.11252E+08
0.11077E+08
0.11218E+08
0.10921E+08
0.11344E+08
</weights>
</event>
<event>
      6  10001 -1.11453E+07  8.94427E-01 -1.00000E+00  3.63872E-01
      21    -1     0     0   502   501  0.000000000E+00  0.000000000E+00  4.119165647E-03  4.119165647E-03  0.000000000E+00  0.00000E+00  9.000E+00
       2    -1     0     0   501     0  0.000000000E+00  0.000000000E+00 -4.772687294E+02  4.772687294E+02  0.000000000E+00  0.00000E+00  9.000E+00
      23     2     1     2     0     0  1.141622617E-01  2.330170164E-01 -4.722734048E+02  4.722749028E+02  1.160872875E+00  0.00000E+00  9.000E+00
      11     1     3     3     0     0 -3.109322962E-01  1.992802910E-01 -4.038689045E+02  4.038690734E+02  5.110000000E-04  0.00000E+00  9.000E+00
     -11     1     3     3     0     0  4.250945579E-01  3.373672534E-02 -6.840450030E+01  6.840582946E+01  5.110000000E-04  0.00000E+00  9.000E+00
       2     1     1     2   502     0 -1.141622617E-01 -2.330170164E-01 -4.991205488E+00  4.997945796E+00  0.000000000E+00  0.00000E+00  9.000E+00
#rwgt            1          17  -35705531.539380208                3     2386137           0
<weights>
-.11145E+08
-.11330E+08
-.10887E+08
-.13770E+08
-.87230E+07
-.91702E+07
-.13910E+08
-.11130E+08
-.11160E+08
-.11165E+08
-.11150E+08
-.10983E+08
-.11329E+08
-.11157E+08
-.11153E+08
-.11274E+08
-.10950E+08
-.11475E+08
-.10677E+08
-.10611E+08
-.11514E+08
-.11108E+08
-.11171E+08
-.11040E+08
-.11212E+08
-.11352E+08
-.11015E+08
-.10741E+08
-.11589E+08
-.11067E+08
-.11189E+08
-.11028E+08
-.11260E+08
-.11524E+08
-.10681E+08
-.11095E+08
-.11191E+08
-.11146E+08
-.11151E+08
-.11257E+08
-.11046E+08
-.11133E+08
-.11157E+08
-.11132E+08
-.11158E+08
</weights>
</event>
<event>
      6  10001 -1.11453E+07  8.94427E-01 -1.00000E+00  1.54999E-01
      -4    -1     0     0     0   502  0.000000000E+00  0.000000000E+00  2.172772312E+01  2.172772312E+01  0.000000000E+00  0.00000E+00  9.000E+00
      21    -1     0     0   502   501  0.000000000E+00  0.000000000E+00 -2.330567507E-02  2.330567507E-02  0.000000000E+00  0.00000E+00  9.000E+00
      23     2     1     2     0     0  2.171761047E-01 -1.720064602E-01  1.919967526E+01  1.923101191E+01  1.061855617E+00  0.00000E+00  9.000E+00
      11     1     3     3     0     0  1.002698036E-01 -8.974547957E-02  1.888399441E+01  1.888447387E+01  5.110000000E-04  0.00000E+00  9.000E+00
     -11     1     3     3     0     0  1.169063010E-01 -8.226098061E-02  3.156808468E-01  3.465380359E-01  5.110000000E-04  0.00000E+00  9.000E+00
      -4     1     1     2     0   501 -2.171761047E-01  1.720064602E-01  2.504742189E+00  2.520016889E+00  0.000000000E+00  0.00000E+00  9.000E+00
#rwgt            1           3  -3141936.4752528411                3     2387313           0
<weights>
-.11145E+08
-.13272E+08
-.89015E+07
-.16138E+08
-.71325E+07
-.91664E+07
-.13909E+08
-.11173E+08
-.11118E+08
-.10825E+08
-.10816E+08
-.10962E+08
-.11008E+08
-.10843E+08
-.10826E+08
-.11226E+08
-.11209E+08
-.11460E+08
-.11500E+08
-.11488E+08
-.11436E+08
-.11498E+08
-.11518E+08
-.11405E+08
-.11329E+08
-.11287E+08
-.11338E+08
-.11432E+08
-.11369E+08
-.11476E+08
-.11511E+08
-.11183E+08
-.11217E+08
-.11138E+08
-.11177E+08
-.11210E+08
-.11100E+08
-.11129E+08
-.11087E+08
-.11165E+08
-.11128E+08
-.11185E+08
-.11104E+08
-.11503E+08
-.10816E+08
</weights>
</event>
<event>
      7  10001  1.11453E+07  2.66494E+00 -1.00000E+00  3.07871E-01
      21    -1     0     0   502   501  0.000000000E+00  0.000000000E+00  3.094906186E+01  3.094906186E+01  0.000000000E+00  0.00000E+00  9.000E+00
       4    -1     0     0   501     0  0.000000000E+00  0.000000000E+00 -8.420160081E-02  8.420160081E-02  0.000000000E+00  0.00000E+00  9.000E+00
      23     2     1     2     0     0 -3.109963535E-01 -1.648010022E-02  5.440766286E+00  5.590264691E+00  1.245845583E+00  0.00000E+00  9.000E+00
      11     1     3     3     0     0  2.654638889E-01 -4.160776131E-01  3.320771777E+00  3.357248444E+00  5.110000000E-04  0.00000E+00  9.000E+00
     -11     1     3     3     0     0 -5.764602423E-01  3.995975129E-01  2.119994508E+00  2.233016247E+00  5.110000000E-04  0.00000E+00  9.000E+00
       4     1     1     2   511     0 -1.051400984E-02  3.440038425E-02  2.993373540E-02  4.679700155E-02  0.000000000E+00  0.00000E+00  9.000E+00
      21     1     1     2   502   511  3.215103633E-01 -1.792028403E-02  2.539416024E+01  2.539620177E+01  3.371747881E-07  0.00000E+00  9.000E+00
#rwgt            2         195   311964.80029256962                3     2390776           0
<weights>
0.11148E+08
0.11390E+08
0.10602E+08
0.13890E+08
0.84971E+07
0.91411E+07
0.13910E+08
0.11177E+08
0.11117E+08
0.10803E+08
0.10783E+08
0.10953E+08
0.10994E+08
0.10817E+08
0.10795E+08
0.11234E+08
0.11227E+08
0.11499E+08
0.11534E+08
0.11524E+08
0.11473E+08
0.11542E+08
0.11557E+08
0.11432E+08
0.11345E+08
0.11308E+08
0.11315E+08
0.11474E+08
0.11398E+08
0.11523E+08
0.11554E+08
0.11197E+08
0.11219E+08
0.11136E+08
0.11187E+08
0.11213E+08
0.11102E+08
0.11172E+08
0.11047E+08
0.11179E+08
0.11121E+08
0.11191E+08
0.11103E+08
0.11541E+08
0.10787E+08
</weights>
</event>
<event>
      7  10001  1.11453E+07  2.92375E+00 -1.00000E+00  2.95527E-01
      21    -1     0     0   502   512  0.000000000E+00  0.000000000E+00  6.359435809E+02  6.359435809E+02  0.000000000E+00  0.00000E+00  9.000E+00
       2    -1     0     0   501     0  0.000000000E+00  0.000000000E+00 -3.082180389E+02  3.082180389E+02  0.000000000E+00  0.00000E+00  9.000E+00
      23     2     1     2     0     0 -5.146406409E+00  9.696443771E-01 -1.484353642E+02  1.485348839E+02  1.459000975E+00  0.00000E+00  9.000E+00
      11     1     3     3     0     0 -3.460843067E+00  6.620392167E-01 -7.923173724E+01  7.931004928E+01  5.110000000E-04  0.00000E+00  9.000E+00
     -11     1     3     3     0     0 -1.685563342E+00  3.076051604E-01 -6.920362692E+01  6.922483459E+01  5.110000000E-04  0.00000E+00  9.000E+00
       2     1     1     2   502     0  4.684840935E+00 -3.856727577E+00 -1.596719219E+02  1.597871858E+02  0.000000000E+00  0.00000E+00  9.000E+00
      21     1     1     2   501   512  4.615654741E-01  2.887083200E+00  6.358328281E+02  6.358395501E+02  7.629394531E-06  0.00000E+00  9.000E+00
#rwgt            1          17   4856005.1384990113                3     2391065           0
<weights>
0.11145E+08
0.12069E+08
0.10070E+08
0.12716E+08
0.94638E+07
0.10546E+08
0.11797E+08
0.11130E+08
0.11160E+08
0.11163E+08
0.11159E+08
0.11060E+08
0.11241E+08
0.11160E+08
0.11158E+08
0.11348E+08
0.10839E+08
0.11323E+08
0.10862E+08
0.10828E+08
0.11341E+08
0.11108E+08
0.11160E+08
0.11142E+08
0.11104E+08
0.11188E+08
0.11110E+08
0.10943E+08
0.11328E+08
0.11095E+08
0.11161E+08
0.11029E+08
0.11257E+08
0.11315E+08
0.10923E+08
0.11133E+08
0.11154E+08
0.11161E+08
0.11130E+08
0.11193E+08
0.11100E+08
0.11156E+08
0.11133E+08
0.11128E+08
0.11162E+08
</weights>
</event>
<event>
      6  10001 -1.11453E+07  8.94427E-01 -1.00000E+00  2.78308E-01
      21    -1     0     0   502   501  0.000000000E+00  0.000000000E+00  1.501035057E-02  1.501035057E-02  0.000000000E+00  0.00000E+00  9.000E+00
      -2    -1     0     0     0   502  0.000000000E+00  0.000000000E+00 -3.066632964E+02  3.066632964E+02  0.000000000E+00  0.00000E+00  9.000E+00
      23     2     1     2     0     0 -8.431311973E-01 -7.398239280E-02 -2.933844036E+02  2.933874482E+02  1.034474176E+00  0.00000E+00  9.000E+00
      11     1     3     3     0     0  1.710390262E-01  1.254234677E-01 -2.071875653E+01  2.071984212E+01  5.110000000E-04  0.00000E+00  9.000E+00
     -11     1     3     3     0     0 -1.014170224E+00 -1.994058605E-01 -2.726656471E+02  2.726676061E+02  5.110000000E-04  0.00000E+00  9.000E+00
      -2     1     1     2     0   501  8.431311973E-01  7.398239280E-02 -1.326388242E+01  1.329085853E+01  0.000000000E+00  0.00000E+00  9.000E+00
#rwgt            1          14  -3330933.3640079200                3     2400641           0
<weights>
-.11145E+08
-.11585E+08
-.10572E+08
-.14080E+08
-.84708E+07
-.91702E+07
-.13910E+08
-.10968E+08
-.11314E+08
-.11405E+08
-.11334E+08
-.11149E+08
-.11282E+08
-.11334E+08
-.11348E+08
-.11028E+08
-.11204E+08
-.11021E+08
-.10896E+08
-.10877E+08
-.11041E+08
-.10930E+08
-.10969E+08
-.11094E+08
-.10970E+08
-.10956E+08
-.11204E+08
-.10957E+08
-.10972E+08
-.10985E+08
-.10967E+08
-.11316E+08
-.10907E+08
-.11317E+08
-.10979E+08
-.11280E+08
-.11004E+08
-.11505E+08
-.10770E+08
-.11143E+08
-.11130E+08
-.11320E+08
-.10958E+08
-.10910E+08
-.11374E+08
</weights>
</event>
<event>
      6  10001 -1.11453E+07  8.94427E-01 -1.00000E+00  1.98756E-01
      -4    -1     0     0     0   502  0.000000000E+00  0.000000000E+00  5.039788078E+01  5.039788078E+01  0.000000000E+00  0.00000E+00  9.000E+00
       4    -1     0     0   501     0  0.000000000E+00  0.000000000E+00 -2.055117037E-02  2.055117037E-02  0.000000000E+00  0.00000E+00  9.000E+00
      23     2     1     2     0     0 -2.557311766E-01  1.883371662E-02  4.501652120E+01  4.505149428E+01  1.756189866E+00  0.00000E+00  9.000E+00
      11     1     3     3     0     0 -4.987730996E-02  1.195888807E-01  2.269345614E-01  2.613212634E-01  5.110000000E-04  0.00000E+00  9.000E+00
     -11     1     3     3     0     0 -2.058538667E-01 -1.007551640E-01  4.478958664E+01  4.479017301E+01  5.110000000E-04  0.00000E+00  9.000E+00
      21     1     1     2   501   502  2.557311766E-01 -1.883371662E-02  5.360808414E+00  5.366937674E+00  1.192092896E-07  0.00000E+00  9.000E+00
#rwgt            1           4  -1458516.2960185737                3     2404367           0
<weights>
-.11145E+08
-.13502E+08
-.86982E+07
-.16427E+08
-.69700E+07
-.91606E+07
-.13909E+08
-.11167E+08
-.11124E+08
-.10810E+08
-.10793E+08
-.10956E+08
-.10995E+08
-.10825E+08
-.10804E+08
-.11228E+08
-.11221E+08
-.11482E+08
-.11527E+08
-.11514E+08
-.11457E+08
-.11526E+08
-.11542E+08
-.11437E+08
-.11332E+08
-.11294E+08
-.11376E+08
-.11456E+08
-.11389E+08
-.11506E+08
-.11538E+08
-.11190E+08
-.11217E+08
-.11136E+08
-.11182E+08
-.11205E+08
-.11106E+08
-.11158E+08
-.11058E+08
-.11173E+08
-.11122E+08
-.11188E+08
-.11100E+08
-.11526E+08
-.10796E+08
</weights>
</event>
<event>
      7  10001  1.11453E+07  1.25729E+00 -1.00000E+00  4.81323E-01
      -2    -1     0     0     0   501  0.000000000E+00  0.000000000E+00  1.261800212E+00  1.261800212E+00  0.000000000E+00  0.00000E+00  9.000E+00
       2    -1     0     0   501     0  0.000000000E+00  0.000000000E+00 -6.773306081E+02  6.773306081E+02  0.000000000E+00  0.00000E+00  9.000E+00
      23     2     1     2     0     0 -4.363666754E-02 -1.516010555E+00 -6.630159736E+02  6.630205345E+02  1.935924209E+00  0.00000E+00  9.000E+00
      11     1     3     3     0     0  5.154827614E-01  1.276071467E-01 -6.978300518E+01  6.978502575E+01  5.110000000E-04  0.00000E+00  9.000E+00
     -11     1     3     3     0     0 -5.591194290E-01 -1.643617702E+00 -5.932329684E+02  5.932355088E+02  5.110000000E-04  0.00000E+00  9.000E+00
       2     1     1     2   502     0  9.783682760E-01  6.751488845E-01 -1.396692449E+01  1.401741810E+01  0.000000000E+00  0.00000E+00  9.000E+00
      -2     1     1     2     0   502 -9.347316085E-01  8.408616704E-01  9.140901938E-01  1.554455664E+00  0.000000000E+00  0.00000E+00  9.000E+00
#rwgt            1          17   77207554.395877391                3     2405200           0
<weights>
0.11143E+08
0.11478E+08
0.10804E+08
0.11847E+08
0.10189E+08
0.10673E+08
0.11632E+08
0.11131E+08
0.11155E+08
0.11158E+08
0.11142E+08
0.10944E+08
0.11365E+08
0.11151E+08
0.11145E+08
0.11190E+08
0.11059E+08
0.11544E+08
0.10596E+08
0.10514E+08
0.11594E+08
0.11112E+08
0.11174E+08
0.10984E+08
0.11271E+08
0.11446E+08
0.10958E+08
0.10643E+08
0.11717E+08
0.11054E+08
0.11203E+08
0.11043E+08
0.11242E+08
0.11632E+08
0.10555E+08
0.11076E+08
0.11206E+08
0.11128E+08
0.11168E+08
0.11287E+08
0.11016E+08
0.11124E+08
0.11164E+08
0.11136E+08
0.11151E+08
</weights>
</event>
<event>
      7  10001  1.11453E+07  2.03348E+00 -1.00000E+00  3.50919E-01
      21    -1     0     0   502   511  0.000000000E+00  0.000000000E+00  2.181364433E+02  2.181364433E+02  0.000000000E+00  0.00000E+00  9.000E+00
       1    -1     0     0   501     0  0.000000000E+00  0.000000000E+00 -3.150704318E+02  3.150704318E+02  0.000000000E+00  0.00000E+00  9.000E+00
      23     2     1     2     0     0 -8.780157298E-01  2.439376891E+00 -2.181742681E+02  2.182025323E+02  2.369044395E+00  0.00000E+00  9.000E+00
      11     1     3     3     0     0 -1.607557162E+00  1.135498688E+00 -1.417280920E+02  1.417417570E+02  5.110000000E-04  0.00000E+00  9.000E+00
     -11     1     3     3     0     0  7.295414326E-01  1.303878203E+00 -7.644617608E+01  7.646077534E+01  5.110000000E-04  0.00000E+00  9.000E+00
       1     1     1     2   502     0 -1.039482294E+00 -3.116307751E+00 -9.684944219E+01  9.690514099E+01  0.000000000E+00  0.00000E+00  9.000E+00
      21     1     1     2   501   511  1.917498024E+00  6.769308599E-01  2.180897218E+02  2.180992017E+02  0.000000000E+00  0.00000E+00  9.000E+00
#rwgt            1          16   662124.78157740110                3     2423139           0
<weights>
0.11145E+08
0.12099E+08
0.10039E+08
0.12928E+08
0.92923E+07
0.10412E+08
0.12003E+08
0.11253E+08
0.11042E+08
0.11133E+08
0.11251E+08
0.11541E+08
0.10696E+08
0.11174E+08
0.11186E+08
0.10186E+08
0.12323E+08
0.10341E+08
0.12067E+08
0.12214E+08
0.10231E+08
0.11185E+08
0.11013E+08
0.11481E+08
0.10734E+08
0.10652E+08
0.11419E+08
0.11806E+08
0.10215E+08
0.11246E+08
0.11017E+08
0.11053E+08
0.11226E+08
0.10329E+08
0.12035E+08
0.11172E+08
0.11113E+08
0.11156E+08
0.11141E+08
0.11303E+08
0.10995E+08
0.11208E+08
0.11077E+08
0.11103E+08
0.11185E+08
</weights>
</event>
<event>
      6  10001 -1.11453E+07  8.94427E-01 -1.00000E+00  4.27794E-01
       4    -1     0     0   501     0  0.000000000E+00  0.000000000E+00  4.332166384E+00  4.332166384E+00  0.000000000E+00  0.00000E+00  9.000E+00
      -4    -1     0     0     0   502  0.000000000E+00  0.000000000E+00 -4.165182053E-01  4.165182053E-01  0.000000000E+00  0.00000E+00  9.000E+00
      23     2     1     2     0     0 -3.466344003E-01  4.604909892E-02  3.081404657E+00  3.844119401E+00  2.271546473E+00  0.00000E+00  9.000E+00
      11     1     3     3     0     0 -6.773132636E-01  1.003459291E+00  1.184575782E+00  1.693783885E+00  5.110000000E-04  0.00000E+00  9.000E+00
     -11     1     3     3     0     0  3.306788633E-01 -9.574101921E-01  1.896828875E+00  2.150335515E+00  5.110000000E-04  0.00000E+00  9.000E+00
      21     1     1     2   501   502  3.466344003E-01 -4.604909892E-02  8.342435220E-01  9.045651889E-01  2.107342426E-08  0.00000E+00  9.000E+00
#rwgt            1          27  -939887.08253199758                3     2431613           0
<weights>
-.11145E+08
-.11201E+08
-.10479E+08
-.17245E+08
-.64792E+07
-.69402E+07
-.17333E+08
-.11199E+08
-.11089E+08
-.10890E+08
-.10913E+08
-.10988E+08
-.11061E+08
-.10920E+08
-.10919E+08
-.11216E+08
-.11159E+08
-.11367E+08
-.11384E+08
-.11379E+08
-.11351E+08
-.11384E+08
-.11417E+08
-.11272E+08
-.11318E+08
-.11259E+08
-.11161E+08
-.11332E+08
-.11286E+08
-.11352E+08
-.11397E+08
-.11152E+08
-.11213E+08
-.11146E+08
-.11158E+08
-.11232E+08
-.11073E+08
-.11015E+08
-.11204E+08
-.11136E+08
-.11154E+08
-.11169E+08
-.11121E+08
-.11406E+08
-.10902E+08
</weights>
</event>
<event>
      6  10001 -1.11453E+07  8.94427E-01 -1.00000E+00  6.65869E-01
       2    -1     0     0   501     0  0.000000000E+00  0.000000000E+00  3.993405923E+01  3.993405923E+01  0.000000000E+00  0.00000E+00  9.000E+00
      21    -1     0     0   502   501  0.000000000E+00  0.000000000E+00 -1.789104512E-02  1.789104512E-02  0.000000000E+00  0.00000E+00  9.000E+00
      23     2     1     2     0     0 -4.740981649E-01 -1.672154258E-01  3.129454941E+01  3.131568718E+01  1.034751312E+00  0.00000E+00  9.000E+00
      11     1     3     3     0     0 -3.710572745E-01 -1.224004864E-02  3.348571445E+00  3.369089536E+00  5.110000000E-04  0.00000E+00  9.000E+00
     -11     1     3     3     0     0 -1.030408903E-01 -1.549753772E-01  2.794597797E+01  2.794659764E+01  5.110000000E-04  0.00000E+00  9.000E+00
       2     1     1     2   502     0  4.740981649E-01  1.672154258E-01  8.621618769E+00  8.636263096E+00  0.000000000E+00  0.00000E+00  9.000E+00
#rwgt            1          24  -7656707.7818916328                3     2435233           0
<weights>
-.11145E+08
-.13966E+08
-.78463E+07
-.16982E+08
-.62871E+07
-.91655E+07
-.13909E+08
-.11178E+08
-.11113E+08
-.10853E+08
-.10850E+08
-.10977E+08
-.11024E+08
-.10870E+08
-.10858E+08
-.11217E+08
-.11202E+08
-.11427E+08
-.11465E+08
-.11456E+08
-.11406E+08
-.11460E+08
-.11484E+08
-.11367E+08
-.11320E+08
-.11277E+08
-.11292E+08
-.11402E+08
-.11342E+08
-.11437E+08
-.11472E+08
-.11176E+08
-.11213E+08
-.11141E+08
-.11171E+08
-.11211E+08
-.11097E+08
-.11108E+08
-.11111E+08
-.11160E+08
-.11133E+08
-.11178E+08
-.11111E+08
-.11468E+08
-.10848E+08
</weights>
</event>
<event>
      6  10001 -1.11453E+07  8.94427E-01 -1.00000E+00  4.60583E-01
       2    -1     0     0   501     0  0.000000000E+00  0.000000000E+00  2.502761946E-02  2.502761946E-02  0.000000000E+00  0.00000E+00  9.000E+00
      21    -1     0     0   502   501  0.000000000E+00  0.000000000E+00 -8.535542051E+01  8.535542051E+01  0.000000000E+00  0.00000E+00  9.000E+00
      23     2     1     2     0     0 -6.160594166E-01 -6.889237617E-01 -5.573926282E+01  5.577488913E+01  1.765981869E+00  0.00000E+00  9.000E+00
      11     1     3     3     0     0 -5.067721119E-01  4.932648832E-01 -1.307553731E+01  1.309464793E+01  5.110000000E-04  0.00000E+00  9.000E+00
     -11     1     3     3     0     0 -1.092873047E-01 -1.182188645E+00 -4.266372551E+01  4.268024119E+01  5.110000000E-04  0.00000E+00  9.000E+00
       2     1     1     2   502     0  6.160594166E-01  6.889237617E-01 -2.959113007E+01  2.960555900E+01  0.000000000E+00  0.00000E+00  9.000E+00
#rwgt            1          24  -3484965.9793628948                3     2438046           0
<weights>
-.11145E+08
-.11884E+08
-.10233E+08
-.14443E+08
-.81993E+07
-.91702E+07
-.13910E+08
-.11182E+08
-.11109E+08
-.11109E+08
-.11161E+08
-.11055E+08
-.11235E+08
-.11170E+08
-.11172E+08
-.11161E+08
-.11066E+08
-.11116E+08
-.11065E+08
-.11059E+08
-.11124E+08
-.11101E+08
-.11077E+08
-.11103E+08
-.11138E+08
-.11146E+08
-.11114E+08
-.11102E+08
-.11076E+08
-.11066E+08
-.11098E+08
-.11098E+08
-.11180E+08
-.11154E+08
-.11129E+08
-.11233E+08
-.11063E+08
-.10911E+08
-.11436E+08
-.11055E+08
-.11228E+08
-.11113E+08
-.11180E+08
-.11130E+08
-.11143E+08
</weights>
</event>
<event>
      6  10001 -1.11453E+07  8.94427E-01 -1.00000E+00  2.60297E-01
       5    -1     0     0   501     0  0.000000000E+00  0.000000000E+00  1.277599833E-01  1.277599833E-01  0.000000000E+00  0.00000E+00  9.000E+00
      -5    -1     0     0     0   502  0.000000000E+00  0.000000000E+00 -8.583424537E+00  8.583424537E+00  0.000000000E+00  0.00000E+00  9.000E+00
      23     2     1     2     0     0 -2.458134103E-01 -1.092019400E-01 -7.444792359E+00  7.665138685E+00  1.804735019E+00  0.00000E+00  9.000E+00
      11     1     3     3     0     0 -7.750381970E-01 -6.168205221E-01 -2.974346750E+00  3.134946669E+00  5.110000000E-04  0.00000E+00  9.000E+00
     -11     1     3     3     0     0  5.292247867E-01  5.076185821E-01 -4.470445609E+00  4.530192016E+00  5.110000000E-04  0.00000E+00  9.000E+00
      21     1     1     2   501   502  2.458134103E-01  1.092019400E-01 -1.010872194E+00  1.046045835E+00  0.000000000E+00  0.00000E+00  9.000E+00
#rwgt            1          29  -442437.30328495632                3     2439084           0
<weights>
-.11145E+08
-.11572E+08
-.10025E+08
-.16436E+08
-.70472E+07
-.78455E+07
-.15943E+08
-.11209E+08
-.11080E+08
-.10942E+08
-.10983E+08
-.11002E+08
-.11110E+08
-.10980E+08
-.10987E+08
-.11200E+08
-.11135E+08
-.11299E+08
-.11301E+08
-.11298E+08
-.11288E+08
-.11302E+08
-.11337E+08
-.11192E+08
-.11305E+08
-.11261E+08
-.11081E+08
-.11272E+08
-.11215E+08
-.11265E+08
-.11313E+08
-.11130E+08
-.11210E+08
-.11149E+08
-.11148E+08
-.11253E+08
-.11050E+08
-.10950E+08
-.11294E+08
-.11112E+08
-.11176E+08
-.11151E+08
-.11140E+08
-.11333E+08
-.10965E+08
</weights>
</event>
<event>
      6  10001 -1.11453E+07  8.94427E-01 -1.00000E+00  2.47893E-01
      21    -1     0     0   502   501  0.000000000E+00  0.000000000E+00  1.001199582E-03  1.001199582E-03  0.000000000E+00  0.00000E+00  9.000E+00
       2    -1     0     0   501     0  0.000000000E+00  0.000000000E+00 -8.018661846E+02  8.018661846E+02  0.000000000E+00  0.00000E+00  9.000E+00
      23     2     1     2     0     0 -4.298532392E-01  2.168134516E-01 -5.868568326E+02  5.868582960E+02  1.218944132E+00  0.00000E+00  9.000E+00
      11     1     3     3     0     0 -5.386139452E-01  5.494094182E-01 -2.290329726E+02  2.290342649E+02  5.110000000E-04  0.00000E+00  9.000E+00
     -11     1     3     3     0     0  1.087607060E-01 -3.325959666E-01 -3.578238600E+02  3.578240312E+02  5.110000000E-04  0.00000E+00  9.000E+00
       2     1     1     2   502     0  4.298532392E-01 -2.168134516E-01 -2.150083508E+02  2.150088898E+02  0.000000000E+00  0.00000E+00  9.000E+00
#rwgt            1          17  -46802137.565024093                3     2440853           0
<weights>
-.11145E+08
-.13601E+08
-.79652E+07
-.16530E+08
-.63821E+07
-.91702E+07
-.13910E+08
-.11136E+08
-.11155E+08
-.11163E+08
-.11138E+08
-.10918E+08
-.11398E+08
-.11152E+08
-.11145E+08
-.10952E+08
-.11418E+08
-.11588E+08
-.10547E+08
-.10450E+08
-.11650E+08
-.11122E+08
-.11165E+08
-.10925E+08
-.11339E+08
-.11597E+08
-.10876E+08
-.10545E+08
-.11851E+08
-.11047E+08
-.11212E+08
-.11140E+08
-.11147E+08
-.11761E+08
-.10419E+08
-.11051E+08
-.11233E+08
-.11118E+08
-.11184E+08
-.11325E+08
-.10987E+08
-.11116E+08
-.11175E+08
-.11139E+08
-.11152E+08
</weights>
</event>
<event>
      7  10001  1.11453E+07  8.94427E-01 -1.00000E+00  6.07649E-01
      21    -1     0     0   511   502  0.000000000E+00  0.000000000E+00  2.331044830E+00  2.331044830E+00  0.000000000E+00  0.00000E+00  9.000E+00
       2    -1     0     0   501     0  0.000000000E+00  0.000000000E+00 -5.544117175E+00  5.544117175E+00  0.000000000E+00  0.00000E+00  9.000E+00
      23     2     1     2     0     0  7.631833627E-01 -4.968133095E-01 -3.958112655E+00  4.216812782E+00  1.133835058E+00  0.00000E+00  9.000E+00
      11     1     3     3     0     0  6.751209697E-01  1.001443693E-01 -3.057420082E+00  3.132672188E+00  5.110000000E-04  0.00000E+00  9.000E+00
     -11     1     3     3     0     0  8.806239302E-02 -5.969576788E-01 -9.006925734E-01  1.084140594E+00  5.110000000E-04  0.00000E+00  9.000E+00
      21     1     1     2   501   502 -1.021531352E+00  6.501307532E-01  2.016369335E+00  2.352007992E+00  2.421152116E-07  0.00000E+00  9.000E+00
       2     1     1     2   511     0  2.583479893E-01 -1.533174437E-01 -1.271329025E+00  1.306341231E+00  0.000000000E+00  0.00000E+00  9.000E+00
#rwgt            2         190   420894.32999095973                3     2447911           0
<weights>
0.11145E+08
0.11237E+08
0.10814E+08
0.13658E+08
0.86649E+07
0.91702E+07
0.13910E+08
0.11144E+08
0.11143E+08
0.10885E+08
0.10889E+08
0.11020E+08
0.11000E+08
0.10905E+08
0.10897E+08
0.11138E+08
0.11293E+08
0.11360E+08
0.11453E+08
0.11450E+08
0.11342E+08
0.11417E+08
0.11433E+08
0.11303E+08
0.11317E+08
0.11327E+08
0.11069E+08
0.11446E+08
0.11183E+08
0.11400E+08
0.11409E+08
0.11154E+08
0.11219E+08
0.11119E+08
0.11203E+08
0.11093E+08
0.11215E+08
0.11057E+08
0.11150E+08
0.11134E+08
0.11153E+08
0.11207E+08
0.11080E+08
0.11423E+08
0.10887E+08
</weights>
</event>
<event>
      7  10001  1.11453E+07  1.47198E+01 -1.00000E+00  1.77886E-01
      21    -1     0     0   502   501  0.000000000E+00  0.000000000E+00  5.225491584E+00  5.225491584E+00  0.000000000E+00  0.00000E+00  9.000E+00
      -4    -1     0     0     0   502  0.000000000E+00  0.000000000E+00 -1.069895033E+01  1.069895033E+01  0.000000000E+00  0.00000E+00  9.000E+00
      23     2     1     2     0     0  1.892091783E-02  9.159517062E-01 -6.655196014E+00  6.837166908E+00  1.271177333E+00  0.00000E+00  9.000E+00
      11     1     3     3     0     0  4.057577458E-01  1.016107705E+00 -5.659302336E+00  5.764097276E+00  5.110000000E-04  0.00000E+00  9.000E+00
     -11     1     3     3     0     0 -3.868368280E-01 -1.001559991E-01 -9.958936785E-01  1.073069632E+00  5.110000000E-04  0.00000E+00  9.000E+00
      -4     1     1     2     0   511  5.515127022E-01  6.057494029E-01 -3.779186323E+00  3.866955891E+00  0.000000000E+00  0.00000E+00  9.000E+00
      21     1     1     2   511   501 -5.704336200E-01 -1.521701109E+00  4.960923591E+00  5.220319115E+00  1.637772520E-06  0.00000E+00  9.000E+00
#rwgt            2         154   2693662.9323023856                3     2447953           0
<weights>
0.11145E+08
0.10953E+08
0.11104E+08
0.13312E+08
0.88969E+07
0.91702E+07
0.13910E+08
0.11230E+08
0.11058E+08
0.10824E+08
0.10859E+08
0.10943E+08
0.11056E+08
0.10858E+08
0.10864E+08
0.11214E+08
0.11198E+08
0.11423E+08
0.11447E+08
0.11444E+08
0.11403E+08
0.11439E+08
0.11494E+08
0.11258E+08
0.11408E+08
0.11377E+08
0.11039E+08
0.11409E+08
0.11281E+08
0.11397E+08
0.11454E+08
0.11147E+08
0.11235E+08
0.11145E+08
0.11160E+08
0.11292E+08
0.11017E+08
0.10955E+08
0.11235E+08
0.11139E+08
0.11153E+08
0.11157E+08
0.11133E+08
0.11470E+08
0.10842E+08
</weights>
</event>
<event>
      6  10001 -1.11453E+07  8.94427E-01 -1.00000E+00  2.27188E-01
      -2    -1     0     0     0   502  0.000000000E+00  0.000000000E+00  6.012491816E-03  6.012491816E-03  0.000000000E+00  0.00000E+00  9.000E+00
       2    -1     0     0   501     0  0.000000000E+00  0.000000000E+00 -8.711158562E+01  8.711158562E+01  0.000000000E+00  0.00000E+00  9.000E+00
      23     2     1     2     0     0  2.087453668E-01 -1.970360463E-01 -6.258271510E+01  6.259306012E+01  1.101157614E+00  0.00000E+00  9.000E+00
      11     1     3     3     0     0 -1.026447587E-01  3.734680388E-01 -3.723184181E+01  3.723385636E+01  5.110000000E-04  0.00000E+00  9.000E+00
     -11     1     3     3     0     0  3.113901255E-01 -5.705040851E-01 -2.535087329E+01  2.535920377E+01  5.110000000E-04  0.00000E+00  9.000E+00
      21     1     1     2   501   502 -2.087453668E-01  1.970360463E-01 -2.452285803E+01  2.452453799E+01  3.371747881E-07  0.00000E+00  9.000E+00
#rwgt            1           8  -492919.75781578722                3     2449952           0
<weights>
-.11145E+08
-.12243E+08
-.98617E+07
-.14880E+08
-.79017E+07
-.91702E+07
-.13910E+08
-.11159E+08
-.11131E+08
-.11139E+08
-.11160E+08
-.11161E+08
-.11107E+08
-.11159E+08
-.11161E+08
-.11166E+08
-.11079E+08
-.11078E+08
-.11181E+08
-.11188E+08
-.11072E+08
-.11125E+08
-.11120E+08
-.11232E+08
-.11030E+08
-.11068E+08
-.11178E+08
-.11226E+08
-.10967E+08
-.11133E+08
-.11114E+08
-.11129E+08
-.11153E+08
-.11087E+08
-.11217E+08
-.11133E+08
-.11153E+08
-.11108E+08
-.11193E+08
-.11095E+08
-.11185E+08
-.11196E+08
-.11091E+08
-.11131E+08
-.11154E+08
</weights>
</event>
<event>
      6  10001 -1.11453E+07  8.94427E-01 -1.00000E+00  3.65755E-01
      -2    -1     0     0     0   502  0.000000000E+00  0.000000000E+00  1.064063410E-02  1.064063410E-02  0.000000000E+00  0.00000E+00  9.000E+00
       2    -1     0     0   501     0  0.000000000E+00  0.000000000E+00 -2.217877820E+02  2.217877820E+02  0.000000000E+00  0.00000E+00  9.000E+00
      23     2     1     2     0     0 -1.414328162E-01 -4.904834668E-01 -2.114227475E+02  2.114314534E+02  1.849534996E+00  0.00000E+00  9.000E+00
      11     1     3     3     0     0  3.753416556E-01 -8.020233526E-01 -1.837242493E+02  1.837263833E+02  5.110000000E-04  0.00000E+00  9.000E+00
     -11     1     3     3     0     0 -5.167744718E-01  3.115398859E-01 -2.769849812E+01  2.770507014E+01  5.110000000E-04  0.00000E+00  9.000E+00
      21     1     1     2   501   502  1.414328162E-01  4.904834668E-01 -1.035439393E+01  1.036696923E+01  3.371747881E-07  0.00000E+00  9.000E+00
#rwgt            1           8  -1668552.5617011965                3     2452417           0
<weights>
-.11145E+08
-.12474E+08
-.96495E+07
-.15161E+08
-.77317E+07
-.91702E+07
-.13910E+08
-.11128E+08
-.11161E+08
-.11173E+08
-.11168E+08
-.11090E+08
-.11216E+08
-.11170E+08
-.11168E+08
-.11314E+08
-.10881E+08
-.11256E+08
-.10929E+08
-.10906E+08
-.11267E+08
-.11103E+08
-.11142E+08
-.11169E+08
-.11068E+08
-.11145E+08
-.11134E+08
-.11006E+08
-.11236E+08
-.11099E+08
-.11141E+08
-.11055E+08
-.11227E+08
-.11253E+08
-.11000E+08
-.11136E+08
-.11150E+08
-.11171E+08
-.11120E+08
-.11169E+08
-.11121E+08
-.11163E+08
-.11126E+08
-.11118E+08
-.11171E+08
</weights>
</event>
<event>
      6  10001 -1.11453E+07  8.94427E-01 -1.00000E+00  3.38733E-01
       2    -1     0     0   501     0  0.000000000E+00  0.000000000E+00  3.639717151E+02  3.639717151E+02  0.000000000E+00  0.00000E+00  9.000E+00
      21    -1     0     0   502   501  0.000000000E+00  0.000000000E+00 -8.742800985E-03  8.742800985E-03  0.000000000E+00  0.00000E+00  9.000E+00
      23     2     1     2     0     0 -5.296184893E-01  9.288743830E-01  3.037051491E+02  3.037131487E+02  1.927638810E+00  0.00000E+00  9.000E+00
      11     1     3     3     0     0  4.567116715E-01  6.055928450E-01  2.234552780E+02  2.234565653E+02  5.110000000E-04  0.00000E+00  9.000E+00
     -11     1     3     3     0     0 -9.863301607E-01  3.232815379E-01  8.024987114E+01  8.025658338E+01  5.110000000E-04  0.00000E+00  9.000E+00
       2     1     1     2   502     0  5.296184893E-01 -9.288743830E-01  6.025782319E+01  6.026730921E+01  0.000000000E+00  0.00000E+00  9.000E+00
#rwgt            1          24  -15949087.041975461                3     2453982           0
<weights>
-.11145E+08
-.12168E+08
-.99124E+07
-.14798E+08
-.79427E+07
-.91645E+07
-.13909E+08
-.11173E+08
-.11119E+08
-.10827E+08
-.10819E+08
-.10963E+08
-.11009E+08
-.10845E+08
-.10829E+08
-.11225E+08
-.11208E+08
-.11457E+08
-.11497E+08
-.11485E+08
-.11434E+08
-.11495E+08
-.11515E+08
-.11404E+08
-.11328E+08
-.11286E+08
-.11345E+08
-.11429E+08
-.11367E+08
-.11472E+08
-.11507E+08
-.11182E+08
-.11217E+08
-.11138E+08
-.11177E+08
-.11210E+08
-.11100E+08
-.11126E+08
-.11090E+08
-.11165E+08
-.11129E+08
-.11184E+08
-.11105E+08
-.11500E+08
-.10819E+08
</weights>
</event>
<event>
      6  10001 -1.11453E+07  8.94427E-01 -1.00000E+00  4.30074E-01
       1    -1     0     0   501     0  0.000000000E+00  0.000000000E+00  6.744163690E+01  6.744163690E+01  0.000000000E+00  0.00000E+00  9.000E+00
      21    -1     0     0   502   501  0.000000000E+00  0.000000000E+00 -2.086267908E-02  2.086267908E-02  0.000000000E+00  0.00000E+00  9.000E+00
      23     2     1     2     0     0  5.729358038E-01 -7.102274399E-01  3.115142634E+01  3.118167442E+01  1.026049815E+00  0.00000E+00  9.000E+00
      11     1     3     3     0     0  3.083879736E-01 -2.050090822E-01  2.784521816E+00  2.809037890E+00  5.110000000E-04  0.00000E+00  9.000E+00
     -11     1     3     3     0     0  2.645478302E-01 -5.052183577E-01  2.836690453E+01  2.837263653E+01  5.110000000E-04  0.00000E+00  9.000E+00
       1     1     1     2   502     0 -5.729358038E-01  7.102274399E-01  3.626934788E+01  3.628082516E+01  0.000000000E+00  0.00000E+00  9.000E+00
#rwgt            1          22  -1216465.1733530629                3     2455704           0
<weights>
-.11145E+08
-.13091E+08
-.89840E+07
-.15922E+08
-.71988E+07
-.91637E+07
-.13909E+08
-.11164E+08
-.11127E+08
-.10881E+08
-.10866E+08
-.10985E+08
-.11038E+08
-.10895E+08
-.10878E+08
-.11216E+08
-.11193E+08
-.11410E+08
-.11438E+08
-.11428E+08
-.11391E+08
-.11442E+08
-.11455E+08
-.11370E+08
-.11293E+08
-.11263E+08
-.11316E+08
-.11385E+08
-.11333E+08
-.11424E+08
-.11452E+08
-.11179E+08
-.11202E+08
-.11134E+08
-.11178E+08
-.11199E+08
-.11107E+08
-.11141E+08
-.11084E+08
-.11156E+08
-.11137E+08
-.11177E+08
-.11112E+08
-.11444E+08
-.10870E+08
</weights>
</event>
<event>
      6  10001 -1.11453E+07  8.94427E-01 -1.00000E+00  4.27893E-01
      -4    -1     0     0     0   502  0.000000000E+00  0.000000000E+00  1.717422340E+00  1.717422340E+00  0.000000000E+00  0.00000E+00  9.000E+00
      21    -1     0     0   502   501  0.000000000E+00  0.000000000E+00 -3.402288574E-01  3.402288574E-01  0.000000000E+00  0.00000E+00  9.000E+00
      23     2     1     2     0     0 -3.310203348E-02 -2.789030262E-01  1.367163464E+00  1.776611620E+00  1.099240769E+00  0.00000E+00  9.000E+00
      11     1     3     3     0     0  2.289861396E-02 -6.975061943E-01  7.109373175E-01  9.962285723E-01  5.110000000E-04  0.00000E+00  9.000E+00
     -11     1     3     3     0     0 -5.600064744E-02  4.186031681E-01  6.562261466E-01  7.803830479E-01  5.110000000E-04  0.00000E+00  9.000E+00
      -4     1     1     2     0   501  3.310203348E-02  2.789030262E-01  1.003001837E-02  2.810395772E-01  0.000000000E+00  0.00000E+00  9.000E+00
#rwgt            1           3  -878532.47282984492                3     2456438           0
<weights>
-.11145E+08
-.10434E+08
-.11264E+08
-.16503E+08
-.70474E+07
-.68394E+07
-.17488E+08
-.11168E+08
-.11120E+08
-.11153E+08
-.11166E+08
-.11103E+08
-.11202E+08
-.11157E+08
-.11173E+08
-.11157E+08
-.11097E+08
-.11116E+08
-.11111E+08
-.11111E+08
-.11120E+08
-.11100E+08
-.11134E+08
-.11077E+08
-.11170E+08
-.11157E+08
-.11027E+08
-.11102E+08
-.11100E+08
-.11087E+08
-.11107E+08
-.11119E+08
-.11158E+08
-.11135E+08
-.11149E+08
-.11193E+08
-.11097E+08
-.11028E+08
-.11224E+08
-.11098E+08
-.11187E+08
-.11132E+08
-.11159E+08
-.11121E+08
-.11164E+08
</weights>
</event>
<event>
      7  10001  1.11453E+07  1.71090E+00 -1.00000E+00  3.85637E-01
      -1    -1     0     0     0   502  0.000000000E+00  0.000000000E+00  2.065357021E-01  2.065357021E-01  0.000000000E+00  0.00000E+00  9.000E+00
      21    -1     0     0   502   501  0.000000000E+00  0.000000000E+00 -4.045068219E+01  4.045068219E+01  0.000000000E+00  0.00000E+00  9.000E+00
      23     2     1     2     0     0 -7.352136872E-01 -8.073463281E-01 -4.059235370E+00  4.453284095E+00  1.470374163E+00  0.00000E+00  9.000E+00
      11     1     3     3     0     0 -4.655920895E-01 -6.400571369E-01 -6.359466012E-01  1.015321364E+00  5.110000000E-04  0.00000E+00  9.000E+00
     -11     1     3     3     0     0 -2.696215977E-01 -1.672891912E-01 -3.423288769E+00  3.437962731E+00  5.110000000E-04  0.00000E+00  9.000E+00
      -1     1     1     2     0   511  3.099694794E-02  1.311415002E-01 -1.748182719E+00  1.753368678E+00  0.000000000E+00  0.00000E+00  9.000E+00
      21     1     1     2   511   501  7.042167393E-01  6.762048280E-01 -3.443672840E+01  3.445056512E+01  0.000000000E+00  0.00000E+00  9.000E+00
#rwgt            1           9   467619.55574819545                3     2470453           0
<weights>
0.11145E+08
0.11950E+08
0.10216E+08
0.12464E+08
0.96328E+07
0.10610E+08
0.11699E+08
0.11276E+08
0.11015E+08
0.10761E+08
0.10865E+08
0.10918E+08
0.11044E+08
0.10830E+08
0.10858E+08
0.11227E+08
0.11159E+08
0.11419E+08
0.11457E+08
0.11450E+08
0.11401E+08
0.11424E+08
0.11515E+08
0.11203E+08
0.11483E+08
0.11400E+08
0.11014E+08
0.11377E+08
0.11265E+08
0.11351E+08
0.11446E+08
0.11102E+08
0.11280E+08
0.11174E+08
0.11125E+08
0.11344E+08
0.10970E+08
0.10750E+08
0.11469E+08
0.11117E+08
0.11171E+08
0.11160E+08
0.11130E+08
0.11488E+08
0.10817E+08
</weights>
</event>
<event>
      7  10001  1.11453E+07  3.12803E+00 -1.00000E+00  2.87142E-01
      -2    -1     0     0     0   502  0.000000000E+00  0.000000000E+00  1.525642441E+02  1.525642441E+02  0.000000000E+00  0.00000E+00  9.000E+00
      21    -1     0     0   502   501  0.000000000E+00  0.000000000E+00 -1.577562824E-01  1.577562824E-01  0.000000000E+00  0.00000E+00  9.000E+00
      23     2     1     2     0     0 -1.513625165E-01  1.591025479E+00  1.447075444E+02  1.447435803E+02  2.806484131E+00  0.00000E+00  9.000E+00
      11     1     3     3     0     0  6.421571071E-01 -1.888357648E-01  1.020902209E+01  1.023094116E+01  5.110000000E-04  0.00000E+00  9.000E+00
     -11     1     3     3     0     0 -7.935196236E-01  1.779861244E+00  1.344985223E+02  1.345126391E+02  5.110000000E-04  0.00000E+00  9.000E+00
      -2     1     1     2     0   512 -4.454074225E-01 -1.315868584E-01  2.603454357E+00  2.644556194E+00  0.000000000E+00  0.00000E+00  9.000E+00
      21     1     1     2   512   501  5.967699391E-01 -1.459438621E+00  5.095489090E+00  5.333863939E+00  3.371747881E-07  0.00000E+00  9.000E+00
#rwgt            1           7   2578600.5732080345                3     2485929           0
<weights>
0.11145E+08
0.12238E+08
0.98059E+07
0.13114E+08
0.90849E+07
0.10400E+08
0.12023E+08
0.11170E+08
0.11120E+08
0.10800E+08
0.10780E+08
0.10952E+08
0.10989E+08
0.10814E+08
0.10792E+08
0.11231E+08
0.11226E+08
0.11496E+08
0.11537E+08
0.11525E+08
0.11470E+08
0.11541E+08
0.11555E+08
0.11442E+08
0.11337E+08
0.11299E+08
0.11349E+08
0.11470E+08
0.11399E+08
0.11522E+08
0.11553E+08
0.11195E+08
0.11218E+08
0.11134E+08
0.11185E+08
0.11205E+08
0.11105E+08
0.11172E+08
0.11044E+08
0.11177E+08
0.11118E+08
0.11190E+08
0.11099E+08
0.11540E+08
0.10784E+08
</weights>
</event>
<event>
      6  10001 -1.11453E+07  8.94427E-01 -1.00000E+00  4.30651E-01
       1    -1     0     0   501     0  0.000000000E+00  0.000000000E+00  4.208526780E+02  4.208526780E+02  0.000000000E+00  0.00000E+00  9.000E+00
      21    -1     0     0   502   501  0.000000000E+00  0.000000000E+00 -6.852806944E-03  6.852806944E-03  0.000000000E+00  0.00000E+00  9.000E+00
      23     2     1     2     0     0 -6.098079081E-01 -5.148572410E-01  3.220448659E+02  3.220553482E+02  2.472793389E+00  0.00000E+00  9.000E+00
      11     1     3     3     0     0  3.829527008E-01 -6.792375143E-01  3.486167021E+01  3.487038953E+01  5.110000000E-04  0.00000E+00  9.000E+00
     -11     1     3     3     0     0 -9.927606090E-01  1.643802733E-01  2.871831957E+02  2.871849587E+02  5.110000000E-04  0.00000E+00  9.000E+00
       1     1     1     2   502     0  6.098079081E-01  5.148572410E-01  9.880095923E+01  9.880418254E+01  0.000000000E+00  0.00000E+00  9.000E+00
#rwgt            1          22  -1871954.3026537674                3     2513110           0
<weights>
-.11145E+08
-.11452E+08
-.10707E+08
-.13922E+08
-.85791E+07
-.91685E+07
-.13910E+08
-.11181E+08
-.11109E+08
-.10842E+08
-.10841E+08
-.10969E+08
-.11022E+08
-.10863E+08
-.10851E+08
-.11223E+08
-.11196E+08
-.11436E+08
-.11469E+08
-.11459E+08
-.11414E+08
-.11468E+08
-.11492E+08
-.11368E+08
-.11328E+08
-.11281E+08
-.11286E+08
-.11406E+08
-.11347E+08
-.11443E+08
-.11481E+08
-.11175E+08
-.11216E+08
-.11140E+08
-.11172E+08
-.11217E+08
-.11091E+08
-.11097E+08
-.11118E+08
-.11158E+08
-.11135E+08
-.11180E+08
-.11109E+08
-.11477E+08
-.10839E+08
</weights>
</event>
<event>
      6  10001 -1.11453E+07  8.94427E-01 -1.00000E+00  4.69566E-01
       2    -1     0     0   501     0  0.000000000E+00  0.000000000E+00  1.064300620E+02  1.064300620E+02  0.000000000E+00  0.00000E+00  9.000E+00
      -2    -1     0     0     0   502  0.000000000E+00  0.000000000E+00 -1.784023047E-02  1.784023047E-02  0.000000000E+00  0.00000E+00  9.000E+00
      23     2     1     2     0     0  2.159988950E-01  1.574874146E-01  5.292297956E+01  5.295799206E+01  1.906751110E+00  0.00000E+00  9.000E+00
      11     1     3     3     0     0  7.161118038E-01  7.521449619E-01  3.858570538E+01  3.859967873E+01  5.110000000E-04  0.00000E+00  9.000E+00
     -11     1     3     3     0     0 -5.001129088E-01 -5.946575473E-01  1.433727419E+01  1.435831334E+01  5.110000000E-04  0.00000E+00  9.000E+00
      21     1     1     2   501   502 -2.159988950E-01 -1.574874146E-01  5.348924216E+01  5.348991012E+01  9.536743164E-07  0.00000E+00  9.000E+00
#rwgt            1          23  -1155685.0255529063                3     2515827           0
<weights>
-.11145E+08
-.12571E+08
-.95343E+07
-.15295E+08
-.76400E+07
-.91605E+07
-.13909E+08
-.11132E+08
-.11175E+08
-.10815E+08
-.10797E+08
-.10961E+08
-.10994E+08
-.10830E+08
-.10808E+08
-.11221E+08
-.11228E+08
-.11479E+08
-.11519E+08
-.11505E+08
-.11455E+08
-.11521E+08
-.11535E+08
-.11440E+08
-.11321E+08
-.11296E+08
-.11368E+08
-.11455E+08
-.11380E+08
-.11501E+08
-.11531E+08
-.11185E+08
-.11222E+08
-.11136E+08
-.11181E+08
-.11181E+08
-.11133E+08
-.11154E+08
-.11063E+08
-.11171E+08
-.11123E+08
-.11191E+08
-.11097E+08
-.11521E+08
-.10801E+08
</weights>
</event>
<event>
      6  10001 -1.11453E+07  8.94427E-01 -1.00000E+00  3.12309E-01
      21    -1     0     0   502   501  0.000000000E+00  0.000000000E+00  2.361831864E-02  2.361831864E-02  0.000000000E+00  0.00000E+00  9.000E+00
       2    -1     0     0   501     0  0.000000000E+00  0.000000000E+00 -1.373438519E+02  1.373438519E+02  0.000000000E+00  0.00000E+00  9.000E+00
      23     2     1     2     0     0 -3.826241349E-01 -3.202147001E-01 -1.341340268E+02  1.341424350E+02  1.416607268E+00  0.00000E+00  9.000E+00
      11     1     3     3     0     0 -6.768656483E-01  3.356000650E-01 -8.147294834E+01  8.147645111E+01  5.110000000E-04  0.00000E+00  9.000E+00
     -11     1     3     3     0     0  2.942415134E-01 -6.558147651E-01 -5.266107846E+01  5.266598386E+01  5.110000000E-04  0.00000E+00  9.000E+00
       2     1     1     2   502     0  3.826241349E-01  3.202147001E-01 -3.186206769E+00  3.225035233E+00  0.000000000E+00  0.00000E+00  9.000E+00
#rwgt            1          17  -27740822.656596612                3     2516908           0
<weights>
-.11145E+08
-.12073E+08
-.10065E+08
-.14673E+08
-.80650E+07
-.91702E+07
-.13910E+08
-.11139E+08
-.11150E+08
-.11167E+08
-.11172E+08
-.11140E+08
-.11154E+08
-.11174E+08
-.11173E+08
-.11241E+08
-.10974E+08
-.11141E+08
-.11069E+08
-.11066E+08
-.11141E+08
-.11107E+08
-.11120E+08
-.11214E+08
-.11024E+08
-.11081E+08
-.11170E+08
-.11135E+08
-.11067E+08
-.11115E+08
-.11117E+08
-.11100E+08
-.11179E+08
-.11144E+08
-.11139E+08
-.11139E+08
-.11146E+08
-.11155E+08
-.11139E+08
-.11125E+08
-.11159E+08
-.11182E+08
-.11106E+08
-.11115E+08
-.11172E+08
</weights>
</event>
<event>
      7  10001  1.11453E+07  1.23863E+00 -1.00000E+00  4.86210E-01
       2    -1     0     0   502     0  0.000000000E+00  0.000000000E+00  2.541019615E+01  2.541019615E+01  0.000000000E+00  0.00000E+00  9.000E+00
       3    -1     0     0   501     0  0.000000000E+00  0.000000000E+00 -2.570702843E+00  2.570702843E+00  0.000000000E+00  0.00000E+00  9.000E+00
      23     2     1     2     0     0  1.000517458E+00 -2.560468679E-01  1.414999990E+01  1.451520625E+01  3.066287690E+00  0.00000E+00  9.000E+00
      11     1     3     3     0     0  1.754586791E-01 -1.615066311E+00  6.322759341E+00  6.528132266E+00  5.110000000E-04  0.00000E+00  9.000E+00
     -11     1     3     3     0     0  8.250587785E-01  1.359019443E+00  7.827240558E+00  7.987073985E+00  5.110000000E-04  0.00000E+00  9.000E+00
       3     1     1     2   502     0 -9.637115236E-01  1.494126672E+00 -2.016441987E+00  2.688343858E+00  0.000000000E+00  0.00000E+00  9.000E+00
       2     1     1     2   501     0 -3.680593406E-02 -1.238079804E+00  1.070593540E+01  1.077734888E+01  0.000000000E+00  0.00000E+00  9.000E+00
#rwgt            2         255   117578.53438666704                3     2518589           0
<weights>
0.11145E+08
0.10841E+08
0.11334E+08
0.13176E+08
0.90817E+07
0.91702E+07
0.13910E+08
0.11198E+08
0.11088E+08
0.10832E+08
0.10851E+08
0.11023E+08
0.10958E+08
0.10858E+08
0.10852E+08
0.11284E+08
0.11056E+08
0.11296E+08
0.11718E+08
0.11675E+08
0.11284E+08
0.11451E+08
0.11522E+08
0.11788E+08
0.11042E+08
0.10698E+08
0.12734E+08
0.11214E+08
0.11626E+08
0.11422E+08
0.11501E+08
0.11204E+08
0.11187E+08
0.11149E+08
0.11164E+08
0.11247E+08
0.11059E+08
0.11099E+08
0.11103E+08
0.11166E+08
0.11126E+08
0.11194E+08
0.11094E+08
0.11479E+08
0.10838E+08
</weights>
</event>
<event>
      7  10001  1.11453E+07  4.25490E+01 -1.00000E+00  1.43150E-01
      21    -1     0     0   502   501  0.000000000E+00  0.000000000E+00  4.487713811E+00  4.487713811E+00  0.000000000E+00  0.00000E+00  9.000E+00
      -4    -1     0     0     0   502  0.000000000E+00  0.000000000E+00 -1.051018739E+02  1.051018739E+02  0.000000000E+00  0.00000E+00  9.000E+00
      23     2     1     2     0     0  3.193366158E-01 -7.644785190E-01 -1.848842307E+01  1.863223092E+01  2.156812005E+00  0.00000E+00  9.000E+00
      11     1     3     3     0     0 -1.946587778E-01 -1.422238192E+00 -1.327662534E+01  1.335400442E+01  5.110000000E-04  0.00000E+00  9.000E+00
     -11     1     3     3     0     0  5.139953936E-01  6.577596725E-01 -5.211797737E+00  5.278226498E+00  5.110000000E-04  0.00000E+00  9.000E+00
      -4     1     1     2     0   511 -5.793550206E+00 -2.711891632E+00 -8.397167968E+01  8.421497829E+01  0.000000000E+00  0.00000E+00  9.000E+00
      21     1     1     2   511   501  5.474213590E+00  3.476370151E+00  1.845942644E+00  6.742378520E+00  2.331067475E-06  0.00000E+00  9.000E+00
#rwgt            2         154   928580.01505847985                3     2519543           0
<weights>
0.11145E+08
0.10289E+08
0.11939E+08
0.12504E+08
0.95660E+07
0.91702E+07
0.13910E+08
0.11141E+08
0.11147E+08
0.11233E+08
0.11242E+08
0.11050E+08
0.11360E+08
0.11292E+08
0.11276E+08
0.11139E+08
0.11033E+08
0.11016E+08
0.10926E+08
0.10922E+08
0.11032E+08
0.10996E+08
0.10920E+08
0.11104E+08
0.10974E+08
0.11027E+08
0.11177E+08
0.11024E+08
0.11008E+08
0.10974E+08
0.10981E+08
0.11112E+08
0.11131E+08
0.11143E+08
0.11138E+08
0.11205E+08
0.11086E+08
0.10956E+08
0.11409E+08
0.10990E+08
0.11290E+08
0.11072E+08
0.11224E+08
0.11013E+08
0.11248E+08
</weights>
</event>
<event>
      7  10001  1.11453E+07  5.16928E+00 -1.00000E+00  2.34498E-01
       2    -1     0     0   501     0  0.000000000E+00  0.000000000E+00  7.394604882E+02  7.394604882E+02  0.000000000E+00  0.00000E+00  9.000E+00
      21    -1     0     0   512   501  0.000000000E+00  0.000000000E+00 -4.679298715E-01  4.679298715E-01  0.000000000E+00  0.00000E+00  9.000E+00
      23     2     1     2     0     0  1.220037810E+00 -1.595171300E+00  4.909497942E+02  4.909717857E+02  4.190570109E+00  0.00000E+00  9.000E+00
      11     1     3     3     0     0  9.303236331E-01 -2.957274645E+00  3.910115216E+02  3.910238113E+02  5.110000000E-04  0.00000E+00  9.000E+00
     -11     1     3     3     0     0  2.897141766E-01  1.362103344E+00  9.993827253E+01  9.994797435E+01  5.110000000E-04  0.00000E+00  9.000E+00
       2     1     1     2   502     0 -5.917430191E+00 -5.625928778E-01  2.325162716E+02  2.325922378E+02  0.000000000E+00  0.00000E+00  9.000E+00
      21     1     1     2   512   502  4.697392382E+00  2.157764178E+00  1.552649249E+01  1.636439460E+01  1.168007728E-06  0.00000E+00  9.000E+00
#rwgt            1          24   782509158.74822414                3     2520174           0
<weights>
0.11145E+08
0.10629E+08
0.11507E+08
0.12891E+08
0.92395E+07
0.91892E+07
0.13881E+08
0.11169E+08
0.11122E+08
0.10816E+08
0.10803E+08
0.10959E+08
0.11000E+08
0.10832E+08
0.10814E+08
0.11227E+08
0.11216E+08
0.11472E+08
0.11516E+08
0.11504E+08
0.11448E+08
0.11514E+08
0.11532E+08
0.11425E+08
0.11330E+08
0.11290E+08
0.11365E+08
0.11446E+08
0.11381E+08
0.11493E+08
0.11526E+08
0.11187E+08
0.11217E+08
0.11137E+08
0.11180E+08
0.11206E+08
0.11104E+08
0.11145E+08
0.11071E+08
0.11170E+08
0.11125E+08
0.11187E+08
0.11102E+08
0.11516E+08
0.10804E+08
</weights>
</event>
<event>
      7  10001  1.11453E+07  8.94427E-01 -1.00000E+00  6.07649E-01
       4    -1     0     0   501     0  0.000000000E+00  0.000000000E+00  7.905643874E-01  7.905643874E-01  0.000000000E+00  0.00000E+00  9.000E+00
      21    -1     0     0   502   501  0.000000000E+00  0.000000000E+00 -2.944358685E+00  2.944358685E+00  0.000000000E+00  0.00000E+00  9.000E+00
      23     2     1     2     0     0  3.104537554E-01 -2.708400858E-01 -4.122217675E-01  1.866337369E+00  1.773006628E+00  0.00000E+00  9.000E+00
      11     1     3     3     0     0 -7.346780050E-01 -2.227626222E-01 -2.513347387E-01  8.078021843E-01  5.110000000E-04  0.00000E+00  9.000E+00
     -11     1     3     3     0     0  1.045131760E+00 -4.807746362E-02 -1.608870288E-01  1.058535184E+00  5.110000000E-04  0.00000E+00  9.000E+00
       4     1     1     2   511     0 -2.295114039E-01  2.648166270E-01 -4.309256426E-01  5.554279790E-01  0.000000000E+00  0.00000E+00  9.000E+00
      21     1     1     2   502   511 -8.094235158E-02  6.023458860E-03 -1.310646888E+00  1.313157725E+00  4.214684851E-08  0.00000E+00  9.000E+00
#rwgt            2         308   11916549.081928570                3     2546546           0
<weights>
0.11145E+08
0.11859E+08
0.10089E+08
0.14413E+08
0.80835E+07
0.91702E+07
0.13910E+08
0.11203E+08
0.11084E+08
0.10869E+08
0.10882E+08
0.10976E+08
0.11050E+08
0.10896E+08
0.10890E+08
0.11221E+08
0.11174E+08
0.11402E+08
0.11408E+08
0.11405E+08
0.11382E+08
0.11421E+08
0.11448E+08
0.11284E+08
0.11338E+08
0.11289E+08
0.11122E+08
0.11371E+08
0.11303E+08
0.11392E+08
0.11433E+08
0.11163E+08
0.11213E+08
0.11140E+08
0.11167E+08
0.11239E+08
0.11066E+08
0.11051E+08
0.11167E+08
0.11145E+08
0.11146E+08
0.11170E+08
0.11120E+08
0.11437E+08
0.10874E+08
</weights>
</event>
<event>
      7  10001  1.11453E+07  1.72810E+00 -1.00000E+00  3.83428E-01
      21    -1     0     0   502   501  0.000000000E+00  0.000000000E+00  1.181475429E-01  1.181475429E-01  0.000000000E+00  0.00000E+00  9.000E+00
      -2    -1     0     0     0   502  0.000000000E+00  0.000000000E+00 -3.840898016E+01  3.840898016E+01  0.000000000E+00  0.00000E+00  9.000E+00
      23     2     1     2     0     0 -7.479232117E-02 -2.365817537E-01 -3.708522329E+01  3.710079171E+01  1.045654897E+00  0.00000E+00  9.000E+00
      11     1     3     3     0     0  2.317265844E-01 -2.621383520E-01 -4.326342748E+00  4.340467205E+00  5.110000000E-04  0.00000E+00  9.000E+00
     -11     1     3     3     0     0 -3.065189055E-01  2.555659828E-02 -3.275888054E+01  3.276032450E+01  5.110000000E-04  0.00000E+00  9.000E+00
      -2     1     1     2     0   512  1.277381220E-01  2.265710245E-01 -1.295597983E+00  1.321448292E+00  0.000000000E+00  0.00000E+00  9.000E+00
      21     1     1     2   512   501 -5.294580086E-02  1.001072919E-02  8.998865358E-02  1.048877033E-01  9.987321957E-08  0.00000E+00  9.000E+00
#rwgt            2         160   1241804.0052583348                3     2547747           0
<weights>
0.11145E+08
0.11403E+08
0.10629E+08
0.13859E+08
0.85169E+07
0.91702E+07
0.13910E+08
0.11225E+08
0.11066E+08
0.10979E+08
0.11045E+08
0.11033E+08
0.11082E+08
0.11033E+08
0.11044E+08
0.11100E+08
0.11225E+08
0.11263E+08
0.11202E+08
0.11179E+08
0.11270E+08
0.11232E+08
0.11262E+08
0.11196E+08
0.11234E+08
0.11281E+08
0.11057E+08
0.11233E+08
0.11083E+08
0.11193E+08
0.11237E+08
0.11083E+08
0.11236E+08
0.11245E+08
0.11051E+08
0.11058E+08
0.11231E+08
0.10899E+08
0.11388E+08
0.11103E+08
0.11174E+08
0.11238E+08
0.11046E+08
0.11268E+08
0.11021E+08
</weights>
</event>
<event>
      6  10001 -1.11453E+07  8.94427E-01 -1.00000E+00  2.60934E-01
      21    -1     0     0   502   501  0.000000000E+00  0.000000000E+00  1.343772581E-02  1.343772581E-02  0.000000000E+00  0.00000E+00  9.000E+00
       2    -1     0     0   501     0  0.000000000E+00  0.000000000E+00 -5.017383906E+02  5.017383906E+02  0.000000000E+00  0.00000E+00  9.000E+00
      23     2     1     2     0     0  8.094382430E-01 -1.283070361E-01 -4.857798094E+02  4.857856374E+02  2.233967140E+00  0.00000E+00  9.000E+00
      11     1     3     3     0     0  5.072642304E-01 -1.058862369E-01 -2.343436305E+01  2.344009174E+01  5.110000000E-04  0.00000E+00  9.000E+00
     -11     1     3     3     0     0  3.021740126E-01 -2.242079919E-02 -4.623454464E+02  4.623455457E+02  5.110000000E-04  0.00000E+00  9.000E+00
       2     1     1     2   502     0 -8.094382430E-01  1.283070361E-01 -1.594514343E+01  1.596619091E+01  0.000000000E+00  0.00000E+00  9.000E+00
#rwgt            1          17  -36802045.054091491                3     2547770           0
<weights>
-.11145E+08
-.11743E+08
-.10368E+08
-.14273E+08
-.83077E+07
-.91702E+07
-.13910E+08
-.11130E+08
-.11160E+08
-.11164E+08
-.11149E+08
-.10976E+08
-.11336E+08
-.11156E+08
-.11152E+08
-.11258E+08
-.10972E+08
-.11488E+08
-.10663E+08
-.10594E+08
-.11529E+08
-.11109E+08
-.11172E+08
-.11030E+08
-.11223E+08
-.11370E+08
-.11005E+08
-.10723E+08
-.11613E+08
-.11065E+08
-.11192E+08
-.11032E+08
-.11257E+08
-.11544E+08
-.10658E+08
-.11092E+08
-.11194E+08
-.11144E+08
-.11154E+08
-.11263E+08
-.11040E+08
-.11132E+08
-.11159E+08
-.11133E+08
-.11158E+08
</weights>
</event>
<event>
      7  10001  1.11453E+07  8.94427E-01 -1.00000E+00  6.07649E-01
      -2    -1     0     0     0   502  0.000000000E+00  0.000000000E+00  4.537135124E+00  4.537135124E+00  0.000000000E+00  0.00000E+00  9.000E+00
      21    -1     0     0   501   511  0.000000000E+00  0.000000000E+00 -1.591827692E+00  1.591827692E+00  0.000000000E+00  0.00000E+00  9.000E+00
      23     2     1     2     0     0 -8.947780728E-02  1.509935645E-01  3.837641854E+00  4.186767441E+00  1.664548369E+00  0.00000E+00  9.000E+00
      11     1     3     3     0     0  2.926781443E-01 -6.832979133E-01  1.977331530E+00  2.112438585E+00  5.110000000E-04  0.00000E+00  9.000E+00
     -11     1     3     3     0     0 -3.821559516E-01  8.342914778E-01  1.860310324E+00  2.074328857E+00  5.110000000E-04  0.00000E+00  9.000E+00
      21     1     1     2   501   502  5.597457034E-01 -3.534420432E-01 -1.181403448E+00  1.354234336E+00  4.470348358E-08  0.00000E+00  9.000E+00
      -2     1     1     2     0   511 -4.702678961E-01  2.024484787E-01  2.890690267E-01  5.879610386E-01  0.000000000E+00  0.00000E+00  9.000E+00
#rwgt            2         102   1230135.4755609098                3     2549084           0
<weights>
0.11145E+08
0.11317E+08
0.10710E+08
0.13754E+08
0.85811E+07
0.91702E+07
0.13910E+08
0.11200E+08
0.11088E+08
0.10858E+08
0.10866E+08
0.10972E+08
0.11040E+08
0.10882E+08
0.10874E+08
0.11223E+08
0.11181E+08
0.11418E+08
0.11428E+08
0.11423E+08
0.11396E+08
0.11440E+08
0.11466E+08
0.11307E+08
0.11339E+08
0.11289E+08
0.11148E+08
0.11386E+08
0.11319E+08
0.11412E+08
0.11452E+08
0.11168E+08
0.11213E+08
0.11140E+08
0.11170E+08
0.11234E+08
0.11072E+08
0.11070E+08
0.11148E+08
0.11150E+08
0.11142E+08
0.11174E+08
0.11116E+08
0.11453E+08
0.10860E+08
</weights>
</event>
<event>
      6  10001 -1.11453E+07  8.94427E-01 -1.00000E+00  3.15700E-01
      -1    -1     0     0     0   502  0.000000000E+00  0.000000000E+00  2.297555199E-02  2.297555199E-02  0.000000000E+00  0.00000E+00  9.000E+00
       1    -1     0     0   501     0  0.000000000E+00  0.000000000E+00 -1.051834321E+03  1.051834321E+03  0.000000000E+00  0.00000E+00  9.000E+00
      23     2     1     2     0     0  6.721183562E-01  7.944247449E-01 -3.449655009E+02  3.450106861E+02  5.485782434E+00  0.00000E+00  9.000E+00
      11     1     3     3     0     0  2.576725368E+00  6.985347453E-01 -9.390559782E+01  9.394354032E+01  5.110000000E-04  0.00000E+00  9.000E+00
     -11     1     3     3     0     0 -1.904607012E+00  9.588999950E-02 -2.510599031E+02  2.510671457E+02  5.110000000E-04  0.00000E+00  9.000E+00
      21     1     1     2   501   502 -6.721183562E-01 -7.944247449E-01 -7.068458449E+02  7.068466108E+02  0.000000000E+00  0.00000E+00  9.000E+00
#rwgt            1          10  -982946.94651014265                3     2550703           0
<weights>
-.11145E+08
-.11761E+08
-.10264E+08
-.14294E+08
-.82239E+07
-.91702E+07
-.13910E+08
-.11470E+08
-.10845E+08
-.10867E+08
-.11588E+08
-.13471E+08
-.90297E+07
-.11156E+08
-.11153E+08
-.11987E+08
-.98056E+07
-.92573E+07
-.13902E+08
-.14502E+08
-.89602E+07
-.11248E+08
-.10987E+08
-.11965E+08
-.10264E+08
-.92856E+07
-.12411E+08
-.14512E+08
-.80125E+07
-.11609E+08
-.10789E+08
-.10752E+08
-.11554E+08
-.93260E+07
-.13387E+08
-.11052E+08
-.11232E+08
-.11048E+08
-.11283E+08
-.11484E+08
-.10849E+08
-.11081E+08
-.11213E+08
-.11131E+08
-.11161E+08
</weights>
</event>
<event>
      6  10001 -1.11453E+07  8.94427E-01 -1.00000E+00  2.27536E-01
      -5    -1     0     0     0   502  0.000000000E+00  0.000000000E+00  5.486428876E+01  5.486428876E+01  0.000000000E+00  0.00000E+00  9.000E+00
       5    -1     0     0   501     0  0.000000000E+00  0.000000000E+00 -1.373495134E-02  1.373495134E-02  0.000000000E+00  0.00000E+00  9.000E+00
      23     2     1     2     0     0 -3.248141845E-01  3.563531041E-01  3.686549963E+01  3.688650722E+01  1.147545317E+00  0.00000E+00  9.000E+00
      11     1     3     3     0     0 -5.229678104E-02  3.403277783E-01  2.967640912E+00  2.987549296E+00  5.110000000E-04  0.00000E+00  9.000E+00
     -11     1     3     3     0     0 -2.725174035E-01  1.602532582E-02  3.389785872E+01  3.389895793E+01  5.110000000E-04  0.00000E+00  9.000E+00
      21     1     1     2   501   502  3.248141845E-01 -3.563531041E-01  1.798505418E+01  1.799151649E+01  3.371747881E-07  0.00000E+00  9.000E+00
#rwgt            1           2  -32198.093106694676                3     2551162           0
<weights>
-.11145E+08
-.14395E+08
-.79081E+07
-.17472E+08
-.63356E+07
-.91852E+07
-.13911E+08
-.11174E+08
-.11116E+08
-.10820E+08
-.10808E+08
-.10960E+08
-.11004E+08
-.10837E+08
-.10819E+08
-.11227E+08
-.11212E+08
-.11468E+08
-.11506E+08
-.11495E+08
-.11444E+08
-.11507E+08
-.11526E+08
-.11410E+08
-.11333E+08
-.11291E+08
-.11328E+08
-.11441E+08
-.11375E+08
-.11485E+08
-.11520E+08
-.11185E+08
-.11217E+08
-.11137E+08
-.11179E+08
-.11210E+08
-.11099E+08
-.11137E+08
-.11078E+08
-.11168E+08
-.11126E+08
-.11185E+08
-.11103E+08
-.11511E+08
-.10809E+08
</weights>
</event>
<event>
      6  10001  1.11453E+07  8.94427E-01 -1.00000E+00  6.06091E-01
      21    -1     0     0   502   501  0.000000000E+00  0.000000000E+00  8.660066677E+00  8.660066677E+00  0.000000000E+00  0.00000E+00  9.000E+00
       2    -1     0     0   501     0  0.000000000E+00  0.000000000E+00 -1.464886533E+00  1.464886533E+00  0.000000000E+00  0.00000E+00  9.000E+00
      23     2     1     2     0     0 -8.463468740E-02  3.388871556E-01  3.729126437E-01  3.293749702E+00  3.253877030E+00  0.00000E+00  9.000E+00
      11     1     3     3     0     0 -1.284739940E-01 -1.402826591E+00  6.106159900E-01  1.535343662E+00  5.110000000E-04  0.00000E+00  9.000E+00
     -11     1     3     3     0     0  4.383930656E-02  1.741713747E+00 -2.377033462E-01  1.758406040E+00  5.110000000E-04  0.00000E+00  9.000E+00
       2     1     1     2   502     0  8.463468740E-02 -3.388871556E-01  6.822267500E+00  6.831203509E+00  0.000000000E+00  0.00000E+00  9.000E+00
#rwgt            1          17   2098814.0275060167                3     2552054           0
<weights>
0.11145E+08
0.13656E+08
0.86163E+07
0.12626E+08
0.94902E+07
0.11853E+08
0.97911E+07
0.10894E+08
0.11416E+08
0.10802E+08
0.10735E+08
0.10996E+08
0.10898E+08
0.10798E+08
0.10753E+08
0.11119E+08
0.11421E+08
0.11537E+08
0.11556E+08
0.11539E+08
0.11514E+08
0.11598E+08
0.11568E+08
0.11497E+08
0.11300E+08
0.11420E+08
0.11094E+08
0.11612E+08
0.11280E+08
0.11601E+08
0.11575E+08
0.11165E+08
0.11262E+08
0.11123E+08
0.11217E+08
0.10873E+08
0.11460E+08
0.11250E+08
0.10958E+08
0.11179E+08
0.11111E+08
0.11256E+08
0.11028E+08
0.11566E+08
0.10763E+08
</weights>
</event>
<event>
      7  10001  1.11453E+07  6.11294E+00 -1.00000E+00  2.23159E-01
      -2    -1     0     0     0   502  0.000000000E+00  0.000000000E+00  2.116894459E-01  2.116894459E-01  0.000000000E+00  0.00000E+00  9.000E+00
      21    -1     0     0   502   501  0.000000000E+00  0.000000000E+00 -7.212391533E+01  7.212391533E+01  0.000000000E+00  0.00000E+00  9.000E+00
      23     2     1     2     0     0 -2.726859266E-01  1.464870009E-01 -3.073915433E+00  3.458669079E+00  1.554869659E+00  0.00000E+00  9.000E+00
      11     1     3     3     0     0 -7.164089436E-01 -1.299630292E-01 -6.404991696E-01  9.697275962E-01  5.110000000E-04  0.00000E+00  9.000E+00
     -11     1     3     3     0     0  4.437230170E-01  2.764500301E-01 -2.433416263E+00  2.488941483E+00  5.110000000E-04  0.00000E+00  9.000E+00
      -2     1     1     2     0   511  2.638878289E-01  3.901768064E-01 -3.026451987E+00  3.062888564E+00  0.000000000E+00  0.00000E+00  9.000E+00
      21     1     1     2   511   501  8.798097735E-03 -5.366638072E-01 -6.581185847E+01  6.581404714E+01  0.000000000E+00  0.00000E+00  9.000E+00
#rwgt            2         101   297783.41601005709                3     2581832           0
<weights>
0.11145E+08
0.10440E+08
0.11842E+08
0.12689E+08
0.94884E+07
0.91702E+07
0.13910E+08
0.11191E+08
0.11101E+08
0.11079E+08
0.11137E+08
0.11047E+08
0.11213E+08
0.11139E+08
0.11145E+08
0.11167E+08
0.11074E+08
0.11142E+08
0.11102E+08
0.11096E+08
0.11147E+08
0.11129E+08
0.11118E+08
0.11108E+08
0.11174E+08
0.11169E+08
0.11103E+08
0.11124E+08
0.11094E+08
0.11091E+08
0.11128E+08
0.11098E+08
0.11189E+08
0.11156E+08
0.11130E+08
0.11241E+08
0.11057E+08
0.10900E+08
0.11437E+08
0.11063E+08
0.11220E+08
0.11120E+08
0.11173E+08
0.11161E+08
0.11116E+08
</weights>
</event>
<event>
      6  10001 -1.11453E+07  8.94427E-01 -1.00000E+00  5.53190E-01
      -4    -1     0     0     0   502  0.000000000E+00  0.000000000E+00  5.213525893E+02  5.213525893E+02  0.000000000E+00  0.00000E+00  9.000E+00
      21    -1     0     0   502   501  0.000000000E+00  0.000000000E+00 -1.021884312E-02  1.021884312E-02  0.000000000E+00  0.00000E+00  9.000E+00
      23     2     1     2     0     0  9.545944376E-02 -1.142249882E+00  4.826350777E+02  4.826385476E+02  1.426706057E+00  0.00000E+00  9.000E+00
      11     1     3     3     0     0  2.998879237E-01  1.966325103E-01  1.896814898E+02  1.896818287E+02  5.110000000E-04  0.00000E+00  9.000E+00
     -11     1     3     3     0     0 -2.044284799E-01 -1.338882392E+00  2.929535880E+02  2.929567188E+02  5.110000000E-04  0.00000E+00  9.000E+00
      -4     1     1     2     0   501 -9.545944376E-02  1.142249882E+00  3.870729275E+01  3.872426061E+01  0.000000000E+00  0.00000E+00  9.000E+00
#rwgt            1           3  -346706.71996937937                3     2582083           0
<weights>
-.11145E+08
-.12365E+08
-.96346E+07
-.15038E+08
-.77200E+07
-.91643E+07
-.13909E+08
-.11173E+08
-.11119E+08
-.10826E+08
-.10817E+08
-.10963E+08
-.11008E+08
-.10844E+08
-.10827E+08
-.11225E+08
-.11209E+08
-.11459E+08
-.11499E+08
-.11488E+08
-.11435E+08
-.11497E+08
-.11517E+08
-.11407E+08
-.11328E+08
-.11286E+08
-.11346E+08
-.11431E+08
-.11369E+08
-.11475E+08
-.11509E+08
-.11182E+08
-.11217E+08
-.11138E+08
-.11177E+08
-.11209E+08
-.11100E+08
-.11128E+08
-.11088E+08
-.11165E+08
-.11129E+08
-.11185E+08
-.11104E+08
-.11502E+08
-.10817E+08
</weights>
</event>
<event>
      7  10001  1.11453E+07  8.94427E-01 -1.00000E+00  6.07649E-01
      -2    -1     0     0     0   502  0.000000000E+00  0.000000000E+00  2.167683942E+00  2.167683942E+00  0.000000000E+00  0.00000E+00  9.000E+00
      21    -1     0     0   501   511  0.000000000E+00  0.000000000E+00 -4.306700946E+00  4.306700946E+00  0.000000000E+00  0.00000E+00  9.000E+00
      23     2     1     2     0     0  2.703728039E-01  3.714859165E-01  1.895516787E+00  2.235777281E+00  1.092983494E+00  0.00000E+00  9.000E+00
      11     1     3     3     0     0  5.789164925E-02  5.837584653E-01  3.990873580E-01  7.095043124E-01  5.110000000E-04  0.00000E+00  9.000E+00
     -11     1     3     3     0     0  2.124811547E-01 -2.122725488E-01  1.496429429E+00  1.526272968E+00  5.110000000E-04  0.00000E+00  9.000E+00
      21     1     1     2   501   502 -2.398352444E-01 -6.490228242E-01 -3.831261536E+00  3.893239850E+00  1.332800375E-07  0.00000E+00  9.000E+00
      -2     1     1     2     0   511 -3.053755955E-02  2.775369076E-01 -2.032722560E-01  3.453677572E-01  0.000000000E+00  0.00000E+00  9.000E+00
#rwgt            2         102   839462.29074815579                3     2583159           0
<weights>
0.11145E+08
0.11166E+08
0.10888E+08
0.13571E+08
0.87242E+07
0.91702E+07
0.13910E+08
0.11205E+08
0.11082E+08
0.10877E+08
0.10894E+08
0.10979E+08
0.11057E+08
0.10905E+08
0.10901E+08
0.11219E+08
0.11170E+08
0.11391E+08
0.11396E+08
0.11392E+08
0.11371E+08
0.11407E+08
0.11437E+08
0.11269E+08
0.11338E+08
0.11289E+08
0.11107E+08
0.11360E+08
0.11292E+08
0.11377E+08
0.11419E+08
0.11159E+08
0.11212E+08
0.11141E+08
0.11165E+08
0.11243E+08
0.11062E+08
0.11036E+08
0.11181E+08
0.11142E+08
0.11150E+08
0.11168E+08
0.11122E+08
0.11425E+08
0.10885E+08
</weights>
</event>
<event>
      7  10001  1.11453E+07  2.53061E+00 -1.00000E+00  3.15233E-01
      21    -1     0     0   502   501  0.000000000E+00  0.000000000E+00  9.047808639E+01  9.047808639E+01  0.000000000E+00  0.00000E+00  9.000E+00
       4    -1     0     0   501     0  0.000000000E+00  0.000000000E+00 -2.824685038E-02  2.824685038E-02  0.000000000E+00  0.00000E+00  9.000E+00
      23     2     1     2     0     0  4.347341852E-01  5.045512923E-01  1.777729106E+01  1.781840985E+01  1.009993210E+00  0.00000E+00  9.000E+00
      11     1     3     3     0     0 -3.316786563E-01  1.770816032E-01  5.736151605E+00  5.748461023E+00  5.110000000E-04  0.00000E+00  9.000E+00
     -11     1     3     3     0     0  7.664128416E-01  3.274696891E-01  1.204113946E+01  1.206994883E+01  5.110000000E-04  0.00000E+00  9.000E+00
       4     1     1     2   511     0  2.519835196E-01 -1.339596758E-01  3.709817813E+00  3.720778023E+00  0.000000000E+00  0.00000E+00  9.000E+00
      21     1     1     2   502   511 -6.867177048E-01 -3.705916165E-01  6.896273066E+01  6.896714536E+01  1.651812370E-06  0.00000E+00  9.000E+00
#rwgt            1          19   705853.30500942748                3     2585519           0
<weights>
0.11145E+08
0.12263E+08
0.99154E+07
0.12879E+08
0.92624E+07
0.10538E+08
0.11810E+08
0.11150E+08
0.11144E+08
0.10776E+08
0.10741E+08
0.10944E+08
0.10966E+08
0.10784E+08
0.10755E+08
0.11233E+08
0.11250E+08
0.11531E+08
0.11591E+08
0.11574E+08
0.11503E+08
0.11588E+08
0.11595E+08
0.11517E+08
0.11333E+08
0.11306E+08
0.11493E+08
0.11510E+08
0.11435E+08
0.11574E+08
0.11599E+08
0.11208E+08
0.11219E+08
0.11131E+08
0.11193E+08
0.11189E+08
0.11125E+08
0.11226E+08
0.10990E+08
0.11190E+08
0.11107E+08
0.11197E+08
0.11091E+08
0.11578E+08
0.10750E+08
</weights>
</event>
<event>
      6  10001 -1.11453E+07  8.94427E-01 -1.00000E+00  1.83799E-01
      21    -1     0     0   502   501  0.000000000E+00  0.000000000E+00  4.435590022E-03  4.435590022E-03  0.000000000E+00  0.00000E+00  9.000E+00
       2    -1     0     0   501     0  0.000000000E+00  0.000000000E+00 -3.083591966E+02  3.083591966E+02  0.000000000E+00  0.00000E+00  9.000E+00
      23     2     1     2     0     0  3.029883704E-01  7.724243831E-02 -2.650390343E+02  2.650467769E+02  2.001623142E+00  0.00000E+00  9.000E+00
      11     1     3     3     0     0  3.592377643E-01  5.267223852E-01 -2.502384967E+02  2.502393089E+02  5.110000000E-04  0.00000E+00  9.000E+00
     -11     1     3     3     0     0 -5.624939384E-02 -4.494799468E-01 -1.480053759E+01  1.480746803E+01  5.110000000E-04  0.00000E+00  9.000E+00
       2     1     1     2   502     0 -3.029883704E-01 -7.724243831E-02 -4.331572678E+01  4.331685532E+01  0.000000000E+00  0.00000E+00  9.000E+00
#rwgt            1          17  -17508117.528945725                3     2592363           0
<weights>
-.11145E+08
-.12157E+08
-.99353E+07
-.14775E+08
-.79607E+07
-.91702E+07
-.13910E+08
-.11127E+08
-.11162E+08
-.11170E+08
-.11161E+08
-.11045E+08
-.11264E+08
-.11164E+08
-.11161E+08
-.11334E+08
-.10860E+08
-.11351E+08
-.10820E+08
-.10779E+08
-.11374E+08
-.11104E+08
-.11158E+08
-.11120E+08
-.11122E+08
-.11219E+08
-.11092E+08
-.10898E+08
-.11381E+08
-.11086E+08
-.11163E+08
-.11029E+08
-.11256E+08
-.11357E+08
-.10874E+08
-.11123E+08
-.11164E+08
-.11165E+08
-.11128E+08
-.11205E+08
-.11090E+08
-.11149E+08
-.11141E+08
-.11124E+08
-.11166E+08
</weights>
</event>
<event>
      7  10001  1.11453E+07  7.92859E+00 -1.00000E+00  2.07471E-01
      21    -1     0     0   502   501  0.000000000E+00  0.000000000E+00  2.946038425E+01  2.946038425E+01  0.000000000E+00  0.00000E+00  9.000E+00
       4    -1     0     0   501     0  0.000000000E+00  0.000000000E+00 -5.686637643E-01  5.686637643E-01  0.000000000E+00  0.00000E+00  9.000E+00
      23     2     1     2     0     0 -8.733098893E-01 -5.028813346E-01  7.773380563E-01  1.619537940E+00  1.001543251E+00  0.00000E+00  9.000E+00
      11     1     3     3     0     0 -1.565116747E-01 -1.443273627E-01  7.897745756E-01  8.179672569E-01  5.110000000E-04  0.00000E+00  9.000E+00
     -11     1     3     3     0     0 -7.167982146E-01 -3.585539719E-01 -1.243651937E-02  8.015706827E-01  5.110000000E-04  0.00000E+00  9.000E+00
       4     1     1     2   511     0 -5.422650801E-01 -8.855531070E-03  4.514247993E-01  7.056303472E-01  0.000000000E+00  0.00000E+00  9.000E+00
      21     1     1     2   502   511  1.415574969E+00  5.117368657E-01  2.766295763E+01  2.770387973E+01  4.768371582E-07  0.00000E+00  9.000E+00
#rwgt            2         195   1780886.6474162946                3     2596649           0
<weights>
0.11143E+08
0.11035E+08
0.11030E+08
0.13412E+08
0.88378E+07
0.91683E+07
0.13907E+08
0.11193E+08
0.11089E+08
0.10809E+08
0.10797E+08
0.10948E+08
0.11006E+08
0.10826E+08
0.10808E+08
0.11230E+08
0.11212E+08
0.11482E+08
0.11494E+08
0.11489E+08
0.11456E+08
0.11516E+08
0.11533E+08
0.11366E+08
0.11360E+08
0.11323E+08
0.11168E+08
0.11457E+08
0.11366E+08
0.11493E+08
0.11527E+08
0.11187E+08
0.11214E+08
0.11131E+08
0.11181E+08
0.11231E+08
0.11073E+08
0.11136E+08
0.11071E+08
0.11168E+08
0.11123E+08
0.11178E+08
0.11106E+08
0.11518E+08
0.10798E+08
</weights>
</event>
<event>
      6  10001 -1.11453E+07  8.94427E-01 -1.00000E+00  2.57124E-01
       2    -1     0     0   501     0  0.000000000E+00  0.000000000E+00  1.463214401E+02  1.463214401E+02  0.000000000E+00  0.00000E+00  9.000E+00
      -2    -1     0     0     0   502  0.000000000E+00  0.000000000E+00 -8.736606482E-03  8.736606482E-03  0.000000000E+00  0.00000E+00  9.000E+00
      23     2     1     2     0     0 -2.219541853E-01  2.878657582E-01  1.342842655E+02  1.342962476E+02  1.756705736E+00  0.00000E+00  9.000E+00
      11     1     3     3     0     0 -1.317228463E-01  1.004000334E+00  6.073922212E+01  6.074766227E+01  5.110000000E-04  0.00000E+00  9.000E+00
     -11     1     3     3     0     0 -9.023133903E-02 -7.161345761E-01  7.354504343E+01  7.354858532E+01  5.110000000E-04  0.00000E+00  9.000E+00
      21     1     1     2   501   502  2.219541853E-01 -2.878657582E-01  1.202843791E+01  1.203392907E+01  2.920019320E-07  0.00000E+00  9.000E+00
#rwgt            1          23  -1459080.0937747024                3     2597394           0
<weights>
-.11145E+08
-.12786E+08
-.93132E+07
-.15553E+08
-.74627E+07
-.91622E+07
-.13909E+08
-.11151E+08
-.11147E+08
-.10817E+08
-.10801E+08
-.10960E+08
-.10998E+08
-.10832E+08
-.10812E+08
-.11224E+08
-.11221E+08
-.11474E+08
-.11516E+08
-.11503E+08
-.11450E+08
-.11516E+08
-.11532E+08
-.11430E+08
-.11326E+08
-.11293E+08
-.11360E+08
-.11449E+08
-.11379E+08
-.11495E+08
-.11527E+08
-.11185E+08
-.11220E+08
-.11137E+08
-.11180E+08
-.11194E+08
-.11118E+08
-.11148E+08
-.11069E+08
-.11170E+08
-.11124E+08
-.11189E+08
-.11100E+08
-.11517E+08
-.10804E+08
</weights>
</event>
<event>
      6  10001 -1.11453E+07  8.94427E-01 -1.00000E+00  2.26776E-01
      21    -1     0     0   502   501  0.000000000E+00  0.000000000E+00  1.047110768E-03  1.047110768E-03  0.000000000E+00  0.00000E+00  9.000E+00
       2    -1     0     0   501     0  0.000000000E+00  0.000000000E+00 -6.287482541E+02  6.287482541E+02  0.000000000E+00  0.00000E+00  9.000E+00
      23     2     1     2     0     0 -3.198301490E-01 -7.028459006E-02 -5.337262733E+02  5.337278033E+02  1.235291138E+00  0.00000E+00  9.000E+00
      11     1     3     3     0     0 -1.310554122E-01 -3.355541969E-01 -4.564946867E+01  4.565089005E+01  5.110000000E-04  0.00000E+00  9.000E+00
     -11     1     3     3     0     0 -1.887747368E-01  2.652696068E-01 -4.880768046E+02  4.880769132E+02  5.110000000E-04  0.00000E+00  9.000E+00
       2     1     1     2   502     0  3.198301490E-01  7.028459006E-02 -9.502093370E+01  9.502149795E+01  0.000000000E+00  0.00000E+00  9.000E+00
#rwgt            1          17  -84487335.268720329                3     2597580           0
<weights>
-.11145E+08
-.10953E+08
-.11348E+08
-.13312E+08
-.90930E+07
-.91702E+07
-.13910E+08
-.11132E+08
-.11158E+08
-.11163E+08
-.11145E+08
-.10951E+08
-.11363E+08
-.11154E+08
-.11149E+08
-.11178E+08
-.11087E+08
-.11533E+08
-.10610E+08
-.10530E+08
-.11582E+08
-.11113E+08
-.11172E+08
-.10991E+08
-.11267E+08
-.11445E+08
-.10962E+08
-.10654E+08
-.11705E+08
-.11057E+08
-.11201E+08
-.11055E+08
-.11233E+08
-.11624E+08
-.10568E+08
-.11077E+08
-.11208E+08
-.11134E+08
-.11165E+08
-.11286E+08
-.11020E+08
-.11126E+08
-.11165E+08
-.11136E+08
-.11155E+08
</weights>
</event>
<event>
      6  10001 -1.11453E+07  8.94427E-01 -1.00000E+00  2.67854E-01
      21    -1     0     0   502   501  0.000000000E+00  0.000000000E+00  1.972993908E-02  1.972993908E-02  0.000000000E+00  0.00000E+00  9.000E+00
       2    -1     0     0   501     0  0.000000000E+00  0.000000000E+00 -3.332544009E+02  3.332544009E+02  0.000000000E+00  0.00000E+00  9.000E+00
      23     2     1     2     0     0  2.319666049E-01  1.214218383E-01 -3.323387751E+02  3.323407600E+02  1.118371730E+00  0.00000E+00  9.000E+00
      11     1     3     3     0     0 -2.260857402E-01  4.842362047E-01 -1.967438411E+02  1.967445669E+02  5.110000000E-04  0.00000E+00  9.000E+00
     -11     1     3     3     0     0  4.580523451E-01 -3.628143664E-01 -1.355949340E+02  1.355961931E+02  5.110000000E-04  0.00000E+00  9.000E+00
       2     1     1     2   502     0 -2.319666049E-01 -1.214218383E-01 -8.958958068E-01  9.333708080E-01  0.000000000E+00  0.00000E+00  9.000E+00
#rwgt            1          17  -78414370.285812289                3     2598318           0
<weights>
-.11145E+08
-.11587E+08
-.10579E+08
-.14082E+08
-.84765E+07
-.91702E+07
-.13910E+08
-.11127E+08
-.11162E+08
-.11169E+08
-.11159E+08
-.11034E+08
-.11276E+08
-.11162E+08
-.11160E+08
-.11332E+08
-.10864E+08
-.11374E+08
-.10794E+08
-.10748E+08
-.11399E+08
-.11105E+08
-.11161E+08
-.11107E+08
-.11137E+08
-.11239E+08
-.11081E+08
-.10871E+08
-.11417E+08
-.11083E+08
-.11168E+08
-.11025E+08
-.11261E+08
-.11385E+08
-.10842E+08
-.11119E+08
-.11168E+08
-.11162E+08
-.11131E+08
-.11214E+08
-.11082E+08
-.11146E+08
-.11144E+08
-.11126E+08
-.11164E+08
</weights>
</event>
<event>
      7  10001  1.11453E+07  6.14258E+00 -1.00000E+00  2.22845E-01
      21    -1     0     0   502   501  0.000000000E+00  0.000000000E+00  1.724459223E+02  1.724459223E+02  0.000000000E+00  0.00000E+00  9.000E+00
      21    -1     0     0   511   502  0.000000000E+00  0.000000000E+00 -2.166687326E+00  2.166687326E+00  0.000000000E+00  0.00000E+00  9.000E+00
      23     2     1     2     0     0  1.164507283E-01 -5.406181452E-01  2.640568639E+01  2.651943816E+01  2.390501645E+00  0.00000E+00  9.000E+00
      11     1     3     3     0     0  8.133990386E-01 -9.426722607E-01  2.235316766E+01  2.238781708E+01  5.110000000E-04  0.00000E+00  9.000E+00
     -11     1     3     3     0     0 -6.969483103E-01  4.020541155E-01  4.052518733E+00  4.131621086E+00  5.110000000E-04  0.00000E+00  9.000E+00
      -4     1     1     2     0   501 -6.120272028E+00 -7.576356109E-01  1.412979447E+02  1.414324607E+02  0.000000000E+00  0.00000E+00  9.000E+00
       4     1     1     2   511     0  6.003821300E+00  1.298253756E+00  2.575603827E+00  6.660710780E+00  0.000000000E+00  0.00000E+00  9.000E+00
#rwgt            1          12   362926.61376940436                3     2598840           0
<weights>
0.11145E+08
0.11882E+08
0.10297E+08
0.12571E+08
0.95607E+07
0.10477E+08
0.11903E+08
0.11170E+08
0.11120E+08
0.10779E+08
0.10748E+08
0.10942E+08
0.10974E+08
0.10789E+08
0.10762E+08
0.11236E+08
0.11241E+08
0.11529E+08
0.11567E+08
0.11556E+08
0.11500E+08
0.11578E+08
0.11588E+08
0.11467E+08
0.11350E+08
0.11318E+08
0.11342E+08
0.11506E+08
0.11422E+08
0.11562E+08
0.11590E+08
0.11206E+08
0.11218E+08
0.11131E+08
0.11192E+08
0.11206E+08
0.11106E+08
0.11209E+08
0.11005E+08
0.11187E+08
0.11110E+08
0.11193E+08
0.11096E+08
0.11571E+08
0.10756E+08
</weights>
</event>
<event>
      6  10001 -1.11453E+07  8.94427E-01 -1.00000E+00  4.50229E-01
       2    -1     0     0   501     0  0.000000000E+00  0.000000000E+00  1.083281302E+03  1.083281302E+03  0.000000000E+00  0.00000E+00  9.000E+00
      21    -1     0     0   502   501  0.000000000E+00  0.000000000E+00 -1.170691320E-03  1.170691320E-03  0.000000000E+00  0.00000E+00  9.000E+00
      23     2     1     2     0     0 -2.783289432E-01 -1.537251590E-01  1.048632770E+03  1.048633652E+03  1.322737863E+00  0.00000E+00  9.000E+00
      11     1     3     3     0     0  5.235323954E-01 -8.268141160E-02  5.190638871E+02  5.190641577E+02  5.110000000E-04  0.00000E+00  9.000E+00
     -11     1     3     3     0     0 -8.018613386E-01 -7.104374737E-02  5.295688825E+02  5.295694943E+02  5.110000000E-04  0.00000E+00  9.000E+00
       2     1     1     2   502     0  2.783289432E-01  1.537251590E-01  3.464736170E+01  3.464882064E+01  0.000000000E+00  0.00000E+00  9.000E+00
#rwgt            1          24  -11037899.734321717                3     2602715           0
<weights>
-.11145E+08
-.10061E+08
-.12246E+08
-.12234E+08
-.98121E+07
-.91654E+07
-.13909E+08
-.11169E+08
-.11124E+08
-.10821E+08
-.10810E+08
-.10961E+08
-.11004E+08
-.10838E+08
-.10821E+08
-.11226E+08
-.11213E+08
-.11465E+08
-.11510E+08
-.11497E+08
-.11441E+08
-.11505E+08
-.11524E+08
-.11421E+08
-.11327E+08
-.11287E+08
-.11374E+08
-.11438E+08
-.11375E+08
-.11483E+08
-.11518E+08
-.11184E+08
-.11217E+08
-.11138E+08
-.11178E+08
-.11206E+08
-.11104E+08
-.11136E+08
-.11080E+08
-.11167E+08
-.11127E+08
-.11186E+08
-.11103E+08
-.11509E+08
-.10811E+08
</weights>
</event>
<event>
      7  10001  1.11453E+07  1.58057E+00 -1.00000E+00  4.04046E-01
      21    -1     0     0   502   501  0.000000000E+00  0.000000000E+00  4.390660075E-02  4.390660075E-02  0.000000000E+00  0.00000E+00  9.000E+00
       1    -1     0     0   501     0  0.000000000E+00  0.000000000E+00 -4.343381728E+01  4.343381728E+01  0.000000000E+00  0.00000E+00  9.000E+00
      23     2     1     2     0     0  1.839988075E-01 -2.548538153E-01 -4.010911292E+01  4.012353124E+01  1.028598137E+00  0.00000E+00  9.000E+00
      11     1     3     3     0     0 -3.955774553E-01  1.121333292E-02 -2.113368669E+01  2.113739153E+01  5.110000000E-04  0.00000E+00  9.000E+00
     -11     1     3     3     0     0  5.795762628E-01 -2.660671483E-01 -1.897542623E+01  1.898613971E+01  5.110000000E-04  0.00000E+00  9.000E+00
       1     1     1     2   511     0 -2.578518311E-02  1.653554563E-01 -3.075248313E+00  3.079798612E+00  0.000000000E+00  0.00000E+00  9.000E+00
      21     1     1     2   502   511 -1.582136244E-01  8.949835902E-02 -2.055494493E-01  2.743940293E-01  4.131546805E-08  0.00000E+00  9.000E+00
#rwgt            2         186   1342133.9085564173                3     2612006           0
<weights>
0.11145E+08
0.11488E+08
0.10565E+08
0.13962E+08
0.84650E+07
0.91702E+07
0.13910E+08
0.11215E+08
0.11075E+08
0.11056E+08
0.11072E+08
0.11004E+08
0.11165E+08
0.11082E+08
0.11091E+08
0.10866E+08
0.11425E+08
0.11127E+08
0.11203E+08
0.11178E+08
0.11121E+08
0.11200E+08
0.11193E+08
0.11199E+08
0.11155E+08
0.11233E+08
0.11075E+08
0.11141E+08
0.11090E+08
0.11165E+08
0.11192E+08
0.11100E+08
0.11204E+08
0.11094E+08
0.11139E+08
0.11066E+08
0.11221E+08
0.10975E+08
0.11321E+08
0.11129E+08
0.11151E+08
0.11221E+08
0.11064E+08
0.11214E+08
0.11074E+08
</weights>
</event>
<event>
      6  10001 -1.11453E+07  8.94427E-01 -1.00000E+00  1.64937E-01
      21    -1     0     0   502   501  0.000000000E+00  0.000000000E+00  1.073579146E-02  1.073579146E-02  0.000000000E+00  0.00000E+00  9.000E+00
       3    -1     0     0   501     0  0.000000000E+00  0.000000000E+00 -4.499972195E+01  4.499972195E+01  0.000000000E+00  0.00000E+00  9.000E+00
      23     2     1     2     0     0 -1.646159236E-01  2.888108074E-01 -3.458484695E+01  3.460100901E+01  1.003830826E+00  0.00000E+00  9.000E+00
      11     1     3     3     0     0  2.848888013E-01 -3.719225392E-02 -2.391289352E+01  2.391461941E+01  5.110000000E-04  0.00000E+00  9.000E+00
     -11     1     3     3     0     0 -4.495047249E-01  3.260030613E-01 -1.067195343E+01  1.068638960E+01  5.110000000E-04  0.00000E+00  9.000E+00
       3     1     1     2   502     0  1.646159236E-01 -2.888108074E-01 -1.040413922E+01  1.040944873E+01  0.000000000E+00  0.00000E+00  9.000E+00
#rwgt            1          18  -1127396.8726019904                3     2612751           0
<weights>
-.11145E+08
-.12345E+08
-.98257E+07
-.15003E+08
-.78729E+07
-.91702E+07
-.13910E+08
-.11185E+08
-.11105E+08
-.10960E+08
-.11110E+08
-.11257E+08
-.10869E+08
-.11055E+08
-.11059E+08
-.11977E+08
-.10002E+08
-.11365E+08
-.10970E+08
-.11018E+08
-.11285E+08
-.11177E+08
-.11280E+08
-.10841E+08
-.11358E+08
-.10017E+08
-.11510E+08
-.10480E+08
-.12033E+08
-.11097E+08
-.11272E+08
-.11190E+08
-.11123E+08
-.11217E+08
-.11081E+08
-.11259E+08
-.11042E+08
-.10904E+08
-.11393E+08
-.11110E+08
-.11169E+08
-.11229E+08
-.11056E+08
-.11248E+08
-.11039E+08
</weights>
</event>
<event>
      7  10001 -1.11453E+07  1.29024E+00 -1.00000E+00  4.72997E-01
      -2    -1     0     0     0   502  0.000000000E+00  0.000000000E+00  5.236249735E+00  5.236249735E+00  0.000000000E+00  0.00000E+00  9.000E+00
      21    -1     0     0   502   511  0.000000000E+00  0.000000000E+00 -4.631925672E+01  4.631925672E+01  0.000000000E+00  0.00000E+00  9.000E+00
      23     2     1     2     0     0 -7.077721601E-01  1.094765958E+00  4.598956609E+00  5.033806413E+00  1.577767783E+00  0.00000E+00  9.000E+00
      11     1     3     3     0     0 -5.585345998E-01 -3.039291649E-01  1.583667381E+00  1.706556905E+00  5.110000000E-04  0.00000E+00  9.000E+00
     -11     1     3     3     0     0 -1.492375603E-01  1.398695122E+00  3.015289228E+00  3.327249508E+00  5.110000000E-04  0.00000E+00  9.000E+00
      -2     1     1     2     0   501 -2.496577879E-01 -2.298724616E-01  3.407426661E-01  4.809115554E-01  0.000000000E+00  0.00000E+00  9.000E+00
      21     1     1     2   501   511  9.574299480E-01 -8.648934959E-01 -4.602270626E+01  4.604078848E+01  0.000000000E+00  0.00000E+00  9.000E+00
#rwgt            1           7  -975972.90114969562                3     2613599           0
<weights>
-.11145E+08
-.94141E+07
-.12195E+08
-.17452E+08
-.63582E+07
-.53543E+07
-.19768E+08
-.11209E+08
-.11077E+08
-.11132E+08
-.11191E+08
-.11085E+08
-.11221E+08
-.11173E+08
-.11195E+08
-.11176E+08
-.11039E+08
-.11097E+08
-.11051E+08
-.11054E+08
-.11101E+08
-.11064E+08
-.11097E+08
-.10989E+08
-.11204E+08
-.11152E+08
-.10897E+08
-.11057E+08
-.11066E+08
-.11029E+08
-.11071E+08
-.11096E+08
-.11170E+08
-.11148E+08
-.11130E+08
-.11237E+08
-.11053E+08
-.10869E+08
-.11382E+08
-.11063E+08
-.11218E+08
-.11127E+08
-.11165E+08
-.11104E+08
-.11171E+08
</weights>
</event>
<event>
      7  10001  1.11453E+07  8.94427E-01 -1.00000E+00  6.07649E-01
       2    -1     0     0   501     0  0.000000000E+00  0.000000000E+00  4.992411717E+01  4.992411717E+01  0.000000000E+00  0.00000E+00  9.000E+00
      -2    -1     0     0     0   502  0.000000000E+00  0.000000000E+00 -4.509325704E-02  4.509325704E-02  0.000000000E+00  0.00000E+00  9.000E+00
      23     2     1     2     0     0  1.945741615E-01 -3.524753443E-01  9.504603629E+00  9.572299414E+00  1.062698430E+00  0.00000E+00  9.000E+00
      11     1     3     3     0     0  4.595697644E-02 -7.274832953E-01  5.720011484E+00  5.766270513E+00  5.110000000E-04  0.00000E+00  9.000E+00
     -11     1     3     3     0     0  1.486171850E-01  3.750079509E-01  3.784592145E+00  3.806028901E+00  5.110000000E-04  0.00000E+00  9.000E+00
       2     1     1     2   501     0  1.784208062E-01  6.235432986E-01  3.385235253E+01  3.385856482E+01  0.000000000E+00  0.00000E+00  9.000E+00
      -2     1     1     2     0   502 -3.729949677E-01 -2.710679542E-01  6.522067756E+00  6.538346190E+00  0.000000000E+00  0.00000E+00  9.000E+00
#rwgt            2         240   163074.73485610139                3     2636426           0
<weights>
0.11145E+08
0.11569E+08
0.10526E+08
0.14061E+08
0.84337E+07
0.91702E+07
0.13910E+08
0.11053E+08
0.11281E+08
0.10812E+08
0.10784E+08
0.10965E+08
0.10979E+08
0.10823E+08
0.10796E+08
0.11209E+08
0.11253E+08
0.11493E+08
0.11525E+08
0.11509E+08
0.11470E+08
0.11537E+08
0.11543E+08
0.11468E+08
0.11305E+08
0.11310E+08
0.11352E+08
0.11475E+08
0.11376E+08
0.11521E+08
0.11541E+08
0.11179E+08
0.11232E+08
0.11136E+08
0.11185E+08
0.11126E+08
0.11196E+08
0.11173E+08
0.11046E+08
0.11173E+08
0.11120E+08
0.11200E+08
0.11087E+08
0.11531E+08
0.10792E+08
</weights>
</event>
<event>
      6  10001 -1.11453E+07  8.94427E-01 -1.00000E+00  1.65355E-01
      -2    -1     0     0     0   502  0.000000000E+00  0.000000000E+00  1.889457527E+02  1.889457527E+02  0.000000000E+00  0.00000E+00  9.000E+00
      21    -1     0     0   502   501  0.000000000E+00  0.000000000E+00 -4.652928136E-03  4.652928136E-03  0.000000000E+00  0.00000E+00  9.000E+00
      23     2     1     2     0     0 -2.425646365E-01  6.816291811E-02  1.542224455E+02  1.542308371E+02  1.589004468E+00  0.00000E+00  9.000E+00
      11     1     3     3     0     0  1.427530058E-01 -4.085214499E-01  1.326101147E+01  1.326807045E+01  5.110000000E-04  0.00000E+00  9.000E+00
     -11     1     3     3     0     0 -3.853176423E-01  4.766843680E-01  1.409614340E+02  1.409627666E+02  5.110000000E-04  0.00000E+00  9.000E+00
      -2     1     1     2     0   501  2.425646365E-01 -6.816291811E-02  3.471865432E+01  3.471956857E+01  0.000000000E+00  0.00000E+00  9.000E+00
#rwgt            1           7  -786140.28787814034                3     2637475           0
<weights>
-.11145E+08
-.11899E+08
-.10207E+08
-.14467E+08
-.81787E+07
-.91665E+07
-.13909E+08
-.11179E+08
-.11112E+08
-.10840E+08
-.10839E+08
-.10968E+08
-.11020E+08
-.10861E+08
-.10849E+08
-.11223E+08
-.11198E+08
-.11437E+08
-.11474E+08
-.11463E+08
-.11415E+08
-.11470E+08
-.11495E+08
-.11374E+08
-.11328E+08
-.11281E+08
-.11306E+08
-.11408E+08
-.11349E+08
-.11445E+08
-.11483E+08
-.11175E+08
-.11217E+08
-.11140E+08
-.11172E+08
-.11216E+08
-.11093E+08
-.11098E+08
-.11118E+08
-.11158E+08
-.11135E+08
-.11181E+08
-.11108E+08
-.11480E+08
-.10837E+08
</weights>
</event>
<event>
      6  10001  1.11453E+07  8.94427E-01 -1.00000E+00  6.00495E-01
      21    -1     0     0   502   501  0.000000000E+00  0.000000000E+00  6.541275201E-02  6.541275201E-02  0.000000000E+00  0.00000E+00  9.000E+00
      -2    -1     0     0     0   502  0.000000000E+00  0.000000000E+00 -2.454662930E+01  2.454662930E+01  0.000000000E+00  0.00000E+00  9.000E+00
      23     2     1     2     0     0  7.586846841E-02 -2.951126243E-01 -2.404089957E+01  2.407657354E+01  1.274242480E+00  0.00000E+00  9.000E+00
      11     1     3     3     0     0 -2.031136462E-01 -4.831507480E-02 -6.499832314E-01  6.826917035E-01  5.110000000E-04  0.00000E+00  9.000E+00
     -11     1     3     3     0     0  2.789821146E-01 -2.467975495E-01 -2.339091633E+01  2.339388183E+01  5.110000000E-04  0.00000E+00  9.000E+00
      -2     1     1     2     0   501 -7.586846841E-02  2.951126243E-01 -4.403169848E-01  5.354685170E-01  0.000000000E+00  0.00000E+00  9.000E+00
#rwgt            1          14   1027227.8342335272                3     2637946           0
<weights>
0.11145E+08
0.17236E+08
0.54301E+07
0.12876E+08
0.90796E+07
0.14366E+08
0.59344E+07
0.11231E+08
0.11052E+08
0.10670E+08
0.10715E+08
0.10962E+08
0.10786E+08
0.10700E+08
0.10708E+08
0.11015E+08
0.11557E+08
0.11620E+08
0.11578E+08
0.11529E+08
0.11617E+08
0.11594E+08
0.11703E+08
0.11457E+08
0.11439E+08
0.11648E+08
0.10911E+08
0.11615E+08
0.11162E+08
0.11554E+08
0.11598E+08
0.11033E+08
0.11398E+08
0.11321E+08
0.11003E+08
0.10666E+08
0.11636E+08
0.10893E+08
0.11229E+08
0.11188E+08
0.11086E+08
0.11396E+08
0.10878E+08
0.11628E+08
0.10700E+08
</weights>
</event>
<event>
      7  10001  1.11453E+07  8.94427E-01 -1.00000E+00  6.07649E-01
       2    -1     0     0   501     0  0.000000000E+00  0.000000000E+00  1.176165973E+02  1.176165973E+02  0.000000000E+00  0.00000E+00  9.000E+00
      21    -1     0     0   511   502  0.000000000E+00  0.000000000E+00 -7.308741538E-02  7.308741538E-02  0.000000000E+00  0.00000E+00  9.000E+00
      23     2     1     2     0     0  1.803356241E-01  4.321730559E-01  1.034456398E+02  1.034535740E+02  1.192599613E+00  0.00000E+00  9.000E+00
      11     1     3     3     0     0  2.193192608E-01  8.155349214E-02  3.741297992E+00  3.748608120E+00  5.110000000E-04  0.00000E+00  9.000E+00
     -11     1     3     3     0     0 -3.898363669E-02  3.506195638E-01  9.970434180E+01  9.970496591E+01  5.110000000E-04  0.00000E+00  9.000E+00
      21     1     1     2   501   502 -4.493469163E-01 -6.164349085E-01  2.107499712E+00  2.241307583E+00  2.546311541E-07  0.00000E+00  9.000E+00
       2     1     1     2   511     0  2.690112922E-01  1.842618526E-01  1.199037038E+01  1.199480310E+01  0.000000000E+00  0.00000E+00  9.000E+00
#rwgt            2         249   6595460.2965945769                3     2658681           0
<weights>
0.11145E+08
0.11179E+08
0.10868E+08
0.13587E+08
0.87081E+07
0.91702E+07
0.13910E+08
0.11174E+08
0.11116E+08
0.10820E+08
0.10809E+08
0.10960E+08
0.11005E+08
0.10838E+08
0.10820E+08
0.11227E+08
0.11212E+08
0.11467E+08
0.11505E+08
0.11494E+08
0.11443E+08
0.11506E+08
0.11525E+08
0.11409E+08
0.11332E+08
0.11290E+08
0.11326E+08
0.11439E+08
0.11374E+08
0.11484E+08
0.11518E+08
0.11185E+08
0.11217E+08
0.11137E+08
0.11179E+08
0.11210E+08
0.11099E+08
0.11136E+08
0.11080E+08
0.11168E+08
0.11127E+08
0.11185E+08
0.11103E+08
0.11510E+08
0.10810E+08
</weights>
</event>
<event>
      6  10001 -1.11453E+07  8.94427E-01 -1.00000E+00  5.06628E-01
       2    -1     0     0   501     0  0.000000000E+00  0.000000000E+00  7.050166541E+01  7.050166541E+01  0.000000000E+00  0.00000E+00  9.000E+00
      21    -1     0     0   502   501  0.000000000E+00  0.000000000E+00 -2.094412507E-02  2.094412507E-02  0.000000000E+00  0.00000E+00  9.000E+00
      23     2     1     2     0     0  5.271787732E-01  4.569802527E-01  3.987064715E+01  3.990458564E+01  1.490202301E+00  0.00000E+00  9.000E+00
      11     1     3     3     0     0  4.005024246E-01 -5.145640019E-01  1.850722414E+01  1.851870740E+01  5.110000000E-04  0.00000E+00  9.000E+00
     -11     1     3     3     0     0  1.266763486E-01  9.715442546E-01  2.136342301E+01  2.138587824E+01  5.110000000E-04  0.00000E+00  9.000E+00
       2     1     1     2   502     0 -5.271787732E-01 -4.569802527E-01  3.061007414E+01  3.061802390E+01  0.000000000E+00  0.00000E+00  9.000E+00
#rwgt            1          24  -5509105.2826213334                3     2658932           0
<weights>
-.11145E+08
-.12655E+08
-.94599E+07
-.15390E+08
-.75800E+07
-.91647E+07
-.13909E+08
-.11171E+08
-.11120E+08
-.10823E+08
-.10813E+08
-.10962E+08
-.11006E+08
-.10840E+08
-.10823E+08
-.11226E+08
-.11211E+08
-.11463E+08
-.11505E+08
-.11492E+08
-.11439E+08
-.11502E+08
-.11521E+08
-.11412E+08
-.11329E+08
-.11287E+08
-.11353E+08
-.11435E+08
-.11372E+08
-.11480E+08
-.11515E+08
-.11184E+08
-.11217E+08
-.11138E+08
-.11178E+08
-.11208E+08
-.11101E+08
-.11133E+08
-.11083E+08
-.11167E+08
-.11127E+08
-.11185E+08
-.11104E+08
-.11506E+08
-.10813E+08
</weights>
</event>
<event>
      7  10001  1.11453E+07  5.37642E+00 -1.00000E+00  2.31760E-01
      21    -1     0     0   502   501  0.000000000E+00  0.000000000E+00  2.571560781E+00  2.571560781E+00  0.000000000E+00  0.00000E+00  9.000E+00
       1    -1     0     0   501     0  0.000000000E+00  0.000000000E+00 -7.183680032E+00  7.183680032E+00  0.000000000E+00  0.00000E+00  9.000E+00
      23     2     1     2     0     0 -1.376862724E-01  2.921300230E-01 -6.837554509E+00  7.140881401E+00  2.033651408E+00  0.00000E+00  9.000E+00
      11     1     3     3     0     0 -3.170800568E-01 -2.525161018E-01 -6.416937328E+00  6.429726983E+00  5.110000000E-04  0.00000E+00  9.000E+00
     -11     1     3     3     0     0  1.793937844E-01  5.446461248E-01 -4.206171816E-01  7.111544176E-01  5.110000000E-04  0.00000E+00  9.000E+00
       1     1     1     2   511     0 -7.816271829E-02 -2.276011927E-01 -1.124635695E-01  2.656308866E-01  0.000000000E+00  0.00000E+00  9.000E+00
      21     1     1     2   502   511  2.158489907E-01 -6.452883036E-02  2.337898828E+00  2.348728526E+00  1.192092896E-07  0.00000E+00  9.000E+00
#rwgt            2         186   1173997.5010404885                3     2665883           0
<weights>
0.11145E+08
0.11073E+08
0.11009E+08
0.13458E+08
0.88213E+07
0.91702E+07
0.13910E+08
0.11143E+08
0.11143E+08
0.10905E+08
0.10896E+08
0.10951E+08
0.11085E+08
0.10919E+08
0.10913E+08
0.11175E+08
0.11189E+08
0.11443E+08
0.11278E+08
0.11247E+08
0.11439E+08
0.11387E+08
0.11428E+08
0.11260E+08
0.11334E+08
0.11395E+08
0.11019E+08
0.11297E+08
0.11305E+08
0.11356E+08
0.11405E+08
0.11140E+08
0.11226E+08
0.11222E+08
0.11052E+08
0.11081E+08
0.11225E+08
0.11043E+08
0.11167E+08
0.11134E+08
0.11152E+08
0.11209E+08
0.11078E+08
0.11405E+08
0.10904E+08
</weights>
</event>
<event>
      7  10001  1.11453E+07  8.94427E-01 -1.00000E+00  6.07649E-01
      21    -1     0     0   512   502  0.000000000E+00  0.000000000E+00  1.666095361E+00  1.666095361E+00  0.000000000E+00  0.00000E+00  9.000E+00
       2    -1     0     0   501     0  0.000000000E+00  0.000000000E+00 -1.109178067E+02  1.109178067E+02  0.000000000E+00  0.00000E+00  9.000E+00
      23     2     1     2     0     0 -8.968064409E-01  9.359102916E-01 -9.060838323E+01  9.065169637E+01  2.484100232E+00  0.00000E+00  9.000E+00
      11     1     3     3     0     0 -1.671765538E+00  2.390830310E-01 -4.562854869E+01  4.565978993E+01  5.110000000E-04  0.00000E+00  9.000E+00
     -11     1     3     3     0     0  7.749590973E-01  6.968272606E-01 -4.497983454E+01  4.499190644E+01  5.110000000E-04  0.00000E+00  9.000E+00
      21     1     1     2   501   502  1.327400165E+00 -1.366832368E+00  1.086261451E+00  2.193213592E+00  1.071330277E-06  0.00000E+00  9.000E+00
       2     1     1     2   512     0 -4.305937244E-01  4.309220761E-01 -1.972958958E+01  1.973899212E+01  0.000000000E+00  0.00000E+00  9.000E+00
#rwgt            2         190   3058674.4235944375                3     2670295           0
<weights>
0.11145E+08
0.10362E+08
0.11914E+08
0.12593E+08
0.95457E+07
0.91702E+07
0.13910E+08
0.11147E+08
0.11143E+08
0.11157E+08
0.11169E+08
0.11153E+08
0.11132E+08
0.11170E+08
0.11170E+08
0.11205E+08
0.11022E+08
0.11105E+08
0.11123E+08
0.11125E+08
0.11103E+08
0.11113E+08
0.11116E+08
0.11225E+08
0.11020E+08
0.11069E+08
0.11177E+08
0.11180E+08
0.11014E+08
0.11123E+08
0.11113E+08
0.11115E+08
0.11164E+08
0.11112E+08
0.11181E+08
0.11137E+08
0.11148E+08
0.11137E+08
0.11160E+08
0.11110E+08
0.11172E+08
0.11189E+08
0.11099E+08
0.11119E+08
0.11166E+08
</weights>
</event>
<event>
      6  10001 -1.11453E+07  8.94427E-01 -1.00000E+00  4.34889E-01
      21    -1     0     0   502   501  0.000000000E+00  0.000000000E+00  6.487451766E+01  6.487451766E+01  0.000000000E+00  0.00000E+00  9.000E+00
      -4    -1     0     0     0   502  0.000000000E+00  0.000000000E+00 -1.947032570E-02  1.947032570E-02  0.000000000E+00  0.00000E+00  9.000E+00
      23     2     1     2     0     0  2.095987838E-01  4.070590079E-01  2.127104418E+01  2.130758002E+01  1.160179717E+00  0.00000E+00  9.000E+00
      11     1     3     3     0     0  3.546301791E-01  3.460831489E-01  2.088268313E+01  2.088856125E+01  5.110000000E-04  0.00000E+00  9.000E+00
     -11     1     3     3     0     0 -1.450313953E-01  6.097585896E-02  3.883610518E-01  4.190187689E-01  5.110000000E-04  0.00000E+00  9.000E+00
      -4     1     1     2     0   501 -2.095987838E-01 -4.070590079E-01  4.358400316E+01  4.358640797E+01  0.000000000E+00  0.00000E+00  9.000E+00
#rwgt            1          12  -798887.22502335010                3     2670394           0
<weights>
-.11145E+08
-.12735E+08
-.93222E+07
-.15485E+08
-.74696E+07
-.91666E+07
-.13909E+08
-.11170E+08
-.11122E+08
-.10812E+08
-.10797E+08
-.10957E+08
-.10998E+08
-.10828E+08
-.10808E+08
-.11228E+08
-.11219E+08
-.11479E+08
-.11521E+08
-.11509E+08
-.11454E+08
-.11521E+08
-.11538E+08
-.11429E+08
-.11332E+08
-.11293E+08
-.11360E+08
-.11452E+08
-.11385E+08
-.11500E+08
-.11533E+08
-.11189E+08
-.11217E+08
-.11136E+08
-.11181E+08
-.11206E+08
-.11104E+08
-.11152E+08
-.11063E+08
-.11172E+08
-.11123E+08
-.11187E+08
-.11101E+08
-.11522E+08
-.10799E+08
</weights>
</event>
<event>
      7  10001  1.11453E+07  1.94706E+00 -1.00000E+00  3.59027E-01
      21    -1     0     0   511   502  0.000000000E+00  0.000000000E+00  1.142988327E+01  1.142988327E+01  0.000000000E+00  0.00000E+00  9.000E+00
       1    -1     0     0   501     0  0.000000000E+00  0.000000000E+00 -1.584686716E+00  1.584686716E+00  0.000000000E+00  0.00000E+00  9.000E+00
      23     2     1     2     0     0  6.082889039E-01  2.467198693E+00  2.350054497E+00  4.010736136E+00  2.026367053E+00  0.00000E+00  9.000E+00
      11     1     3     3     0     0 -4.201340485E-01  9.760109474E-01  2.441881880E-02  1.062876535E+00  5.110000000E-04  0.00000E+00  9.000E+00
     -11     1     3     3     0     0  1.028422952E+00  1.491187746E+00  2.325635678E+00  2.947859602E+00  5.110000000E-04  0.00000E+00  9.000E+00
      21     1     1     2   501   502 -1.400302381E+00 -6.885045443E-01  3.513797151E-01  1.599485220E+00  2.553930357E-08  0.00000E+00  9.000E+00
       1     1     1     2   511     0  7.920134769E-01 -1.778694149E+00  7.143762338E+00  7.404348625E+00  0.000000000E+00  0.00000E+00  9.000E+00
#rwgt            1          10   52460.968488180282                3     2671064           0
<weights>
0.11145E+08
0.12452E+08
0.98749E+07
0.12176E+08
0.97161E+07
0.11104E+08
0.10942E+08
0.11013E+08
0.11287E+08
0.10841E+08
0.10801E+08
0.10952E+08
0.11008E+08
0.10847E+08
0.10818E+08
0.11246E+08
0.11199E+08
0.11557E+08
0.11376E+08
0.11349E+08
0.11547E+08
0.11505E+08
0.11520E+08
0.11381E+08
0.11332E+08
0.11406E+08
0.11085E+08
0.11422E+08
0.11379E+08
0.11489E+08
0.11517E+08
0.11166E+08
0.11236E+08
0.11224E+08
0.11087E+08
0.11032E+08
0.11289E+08
0.11169E+08
0.11044E+08
0.11157E+08
0.11133E+08
0.11219E+08
0.11067E+08
0.11503E+08
0.10818E+08
</weights>
</event>
<event>
      7  10001  1.11453E+07  1.15057E+00 -1.00000E+00  5.11137E-01
       3    -1     0     0   501     0  0.000000000E+00  0.000000000E+00  3.954916060E-02  3.954916060E-02  0.000000000E+00  0.00000E+00  9.000E+00
      21    -1     0     0   502   511  0.000000000E+00  0.000000000E+00 -1.631665390E+02  1.631665390E+02  0.000000000E+00  0.00000E+00  9.000E+00
      23     2     1     2     0     0 -3.099494128E-01  3.651512686E-01 -1.317059639E+01  1.322256008E+01  1.068682244E+00  0.00000E+00  9.000E+00
      11     1     3     3     0     0  3.478574154E-01  3.756379290E-01 -5.462831696E+00  5.486769454E+00  5.110000000E-04  0.00000E+00  9.000E+00
     -11     1     3     3     0     0 -6.578068282E-01 -1.048666037E-02 -7.707764696E+00  7.735790629E+00  5.110000000E-04  0.00000E+00  9.000E+00
       3     1     1     2   502     0 -6.583738786E-02  7.223189115E-01 -1.176051240E+01  1.178285751E+01  0.000000000E+00  0.00000E+00  9.000E+00
      21     1     1     2   501   511  3.757868006E-01 -1.087470180E+00 -1.381958811E+02  1.382006706E+02  3.303624740E-06  0.00000E+00  9.000E+00
#rwgt            1          26   106163.91849776772                3     2673552           0
<weights>
0.11145E+08
0.15237E+08
0.72763E+07
0.10657E+08
0.10501E+08
0.14266E+08
0.60877E+07
0.11356E+08
0.10927E+08
0.10219E+08
0.10271E+08
0.10671E+08
0.10740E+08
0.10252E+08
0.10266E+08
0.11321E+08
0.11418E+08
0.12014E+08
0.12160E+08
0.12160E+08
0.11943E+08
0.12086E+08
0.12275E+08
0.11552E+08
0.11925E+08
0.11816E+08
0.10909E+08
0.11994E+08
0.11649E+08
0.12002E+08
0.12135E+08
0.11203E+08
0.11380E+08
0.11147E+08
0.11196E+08
0.11461E+08
0.10876E+08
0.10859E+08
0.11057E+08
0.11258E+08
0.11048E+08
0.11226E+08
0.11062E+08
0.12141E+08
0.10234E+08
</weights>
</event>
<event>
      6  10001 -1.11453E+07  8.94427E-01 -1.00000E+00  1.48482E-01
       2    -1     0     0   501     0  0.000000000E+00  0.000000000E+00  2.260261482E-02  2.260261482E-02  0.000000000E+00  0.00000E+00  9.000E+00
      -2    -1     0     0     0   502  0.000000000E+00  0.000000000E+00 -6.042819503E+01  6.042819503E+01  0.000000000E+00  0.00000E+00  9.000E+00
      23     2     1     2     0     0  3.973766049E-01  1.881312810E-01 -4.973377531E+01  4.976992774E+01  1.844993051E+00  0.00000E+00  9.000E+00
      11     1     3     3     0     0  3.244369141E-01  2.447025373E-01 -2.271578801E+00  2.307641470E+00  5.110000000E-04  0.00000E+00  9.000E+00
     -11     1     3     3     0     0  7.293969086E-02 -5.657125632E-02 -4.746219650E+01  4.746228627E+01  5.110000000E-04  0.00000E+00  9.000E+00
      21     1     1     2   501   502 -3.973766049E-01 -1.881312810E-01 -1.067181711E+01  1.068086991E+01  1.192092896E-07  0.00000E+00  9.000E+00
#rwgt            1          23  -2483051.6979185184                3     2676221           0
<weights>
-.11145E+08
-.12656E+08
-.95052E+07
-.15382E+08
-.76161E+07
-.91702E+07
-.13910E+08
-.11212E+08
-.11079E+08
-.11056E+08
-.11118E+08
-.11060E+08
-.11121E+08
-.11114E+08
-.11120E+08
-.11080E+08
-.11204E+08
-.11199E+08
-.11098E+08
-.11073E+08
-.11213E+08
-.11153E+08
-.11159E+08
-.11167E+08
-.11156E+08
-.11209E+08
-.11086E+08
-.11159E+08
-.11034E+08
-.11122E+08
-.11157E+08
-.11094E+08
-.11200E+08
-.11267E+08
-.11026E+08
-.11054E+08
-.11226E+08
-.10941E+08
-.11377E+08
-.11094E+08
-.11181E+08
-.11252E+08
-.11030E+08
-.11183E+08
-.11098E+08
</weights>
</event>
<event>
      7  10001  1.11453E+07  8.94427E-01 -1.00000E+00  6.07649E-01
      21    -1     0     0   511   502  0.000000000E+00  0.000000000E+00  8.665499438E-01  8.665499438E-01  0.000000000E+00  0.00000E+00  9.000E+00
       2    -1     0     0   501     0  0.000000000E+00  0.000000000E+00 -3.837537521E+01  3.837537521E+01  0.000000000E+00  0.00000E+00  9.000E+00
      23     2     1     2     0     0  1.967580811E-02 -2.424684772E-01 -3.822727010E+01  3.839603650E+01  3.587793467E+00  0.00000E+00  9.000E+00
      11     1     3     3     0     0  9.564118088E-01  9.876397862E-01 -2.955863514E+01  2.959059086E+01  5.110000000E-04  0.00000E+00  9.000E+00
     -11     1     3     3     0     0 -9.367360007E-01 -1.230108263E+00 -8.668634955E+00  8.805445640E+00  5.110000000E-04  0.00000E+00  9.000E+00
      21     1     1     2   501   502 -1.067587989E-02  3.409485445E-01  6.116514499E-01  7.003409031E-01  1.355514333E-07  0.00000E+00  9.000E+00
       2     1     1     2   511     0 -8.999928223E-03 -9.848006733E-02  1.067933776E-01  1.455477512E-01  0.000000000E+00  0.00000E+00  9.000E+00
#rwgt            2         190   19673863.389252283                3     2677229           0
<weights>
0.11145E+08
0.10888E+08
0.11232E+08
0.13232E+08
0.89994E+07
0.91702E+07
0.13910E+08
0.11194E+08
0.11097E+08
0.11043E+08
0.11086E+08
0.11135E+08
0.11045E+08
0.11077E+08
0.11085E+08
0.11091E+08
0.11226E+08
0.11100E+08
0.11340E+08
0.11350E+08
0.11089E+08
0.11205E+08
0.11206E+08
0.11237E+08
0.11143E+08
0.11147E+08
0.11140E+08
0.11339E+08
0.10944E+08
0.11199E+08
0.11182E+08
0.11144E+08
0.11163E+08
0.11070E+08
0.11253E+08
0.11117E+08
0.11175E+08
0.11006E+08
0.11281E+08
0.11079E+08
0.11198E+08
0.11209E+08
0.11077E+08
0.11220E+08
0.11070E+08
</weights>
</event>
<event>
      6  10001 -1.11453E+07  8.94427E-01 -1.00000E+00  2.65741E-01
      21    -1     0     0   502   501  0.000000000E+00  0.000000000E+00  6.610611294E-03  6.610611294E-03  0.000000000E+00  0.00000E+00  9.000E+00
       2    -1     0     0   501     0  0.000000000E+00  0.000000000E+00 -1.050835708E+03  1.050835708E+03  0.000000000E+00  0.00000E+00  9.000E+00
      23     2     1     2     0     0  7.035883701E-01 -1.819538159E+00 -6.546636826E+02  6.546721007E+02  2.686307370E+00  0.00000E+00  9.000E+00
      11     1     3     3     0     0  5.735554639E-01 -1.317096209E+00 -6.348399656E+02  6.348415909E+02  5.110000000E-04  0.00000E+00  9.000E+00
     -11     1     3     3     0     0  1.300329062E-01 -5.024419500E-01 -1.982371709E+01  1.983050972E+01  5.110000000E-04  0.00000E+00  9.000E+00
       2     1     1     2   502     0 -7.035883701E-01  1.819538159E+00 -3.961654144E+02  3.961702176E+02  0.000000000E+00  0.00000E+00  9.000E+00
#rwgt            1          17  -8601827.7728684191                3     2677271           0
<weights>
-.11145E+08
-.11402E+08
-.10699E+08
-.13858E+08
-.85727E+07
-.91702E+07
-.13910E+08
-.11141E+08
-.11150E+08
-.11165E+08
-.11130E+08
-.10897E+08
-.11422E+08
-.11151E+08
-.11143E+08
-.10621E+08
-.11931E+08
-.11613E+08
-.10519E+08
-.10409E+08
-.11685E+08
-.11137E+08
-.11149E+08
-.10865E+08
-.11407E+08
-.11778E+08
-.10774E+08
-.10451E+08
-.11979E+08
-.11044E+08
-.11217E+08
-.11281E+08
-.11005E+08
-.11893E+08
-.10279E+08
-.11021E+08
-.11261E+08
-.11103E+08
-.11203E+08
-.11362E+08
-.10955E+08
-.11107E+08
-.11185E+08
-.11141E+08
-.11150E+08
</weights>
</event>
<event>
      6  10001 -1.11453E+07  8.94427E-01 -1.00000E+00  3.43426E-01
       1    -1     0     0   501     0  0.000000000E+00  0.000000000E+00  2.154130488E+02  2.154130488E+02  0.000000000E+00  0.00000E+00  9.000E+00
      21    -1     0     0   502   501  0.000000000E+00  0.000000000E+00 -1.729494235E-02  1.729494235E-02  0.000000000E+00  0.00000E+00  9.000E+00
      23     2     1     2     0     0  3.863798256E-01 -2.846724364E-02  2.126761219E+02  2.126832548E+02  1.698216688E+00  0.00000E+00  9.000E+00
      11     1     3     3     0     0  2.092569792E-01  6.645194036E-01  4.314947532E+01  4.315509930E+01  5.110000000E-04  0.00000E+00  9.000E+00
     -11     1     3     3     0     0  1.771228464E-01 -6.929866472E-01  1.695266466E+02  1.695281555E+02  5.110000000E-04  0.00000E+00  9.000E+00
       1     1     1     2   502     0 -3.863798256E-01  2.846724364E-02  2.719631976E+00  2.747088976E+00  0.000000000E+00  0.00000E+00  9.000E+00
#rwgt            1          22  -4108003.7386307069                3     2678609           0
<weights>
-.11145E+08
-.11813E+08
-.10280E+08
-.14363E+08
-.82375E+07
-.91670E+07
-.13909E+08
-.11175E+08
-.11116E+08
-.10828E+08
-.10821E+08
-.10963E+08
-.11011E+08
-.10847E+08
-.10831E+08
-.11225E+08
-.11207E+08
-.11455E+08
-.11493E+08
-.11482E+08
-.11432E+08
-.11493E+08
-.11513E+08
-.11397E+08
-.11329E+08
-.11286E+08
-.11323E+08
-.11427E+08
-.11365E+08
-.11469E+08
-.11505E+08
-.11181E+08
-.11217E+08
-.11138E+08
-.11176E+08
-.11211E+08
-.11098E+08
-.11123E+08
-.11093E+08
-.11164E+08
-.11130E+08
-.11184E+08
-.11105E+08
-.11498E+08
-.10820E+08
</weights>
</event>
<event>
      6  10001  1.11453E+07  8.94427E-01 -1.00000E+00  5.79237E-01
      21    -1     0     0   502   501  0.000000000E+00  0.000000000E+00  5.974218971E+01  5.974218971E+01  0.000000000E+00  0.00000E+00  9.000E+00
       2    -1     0     0   501     0  0.000000000E+00  0.000000000E+00 -3.692967897E-02  3.692967897E-02  0.000000000E+00  0.00000E+00  9.000E+00
      23     2     1     2     0     0  4.995834358E-01  6.104990910E-02  2.234520513E+01  2.241567452E+01  1.703220751E+00  0.00000E+00  9.000E+00
      11     1     3     3     0     0 -3.188252340E-01 -3.031600099E-01  1.615502833E+01  1.616101780E+01  5.110000000E-04  0.00000E+00  9.000E+00
     -11     1     3     3     0     0  8.184086698E-01  3.642099190E-01  6.190176798E+00  6.254656718E+00  5.110000000E-04  0.00000E+00  9.000E+00
       2     1     1     2   502     0 -4.995834358E-01 -6.104990910E-02  3.736005490E+01  3.736344487E+01  0.000000000E+00  0.00000E+00  9.000E+00
#rwgt            1          17   663214.40710044722                3     2679109           0
<weights>
0.11145E+08
0.13123E+08
0.91601E+07
0.12547E+08
0.95294E+07
0.11455E+08
0.10403E+08
0.10854E+08
0.11561E+08
0.10788E+08
0.10729E+08
0.10969E+08
0.10929E+08
0.10789E+08
0.10745E+08
0.11183E+08
0.11327E+08
0.11544E+08
0.11584E+08
0.11557E+08
0.11523E+08
0.11602E+08
0.11586E+08
0.11600E+08
0.11259E+08
0.11336E+08
0.11494E+08
0.11545E+08
0.11397E+08
0.11597E+08
0.11595E+08
0.11177E+08
0.11254E+08
0.11131E+08
0.11199E+08
0.10992E+08
0.11349E+08
0.11251E+08
0.10973E+08
0.11187E+08
0.11107E+08
0.11225E+08
0.11061E+08
0.11579E+08
0.10751E+08
</weights>
</event>
<event>
      6  10001 -1.11453E+07  8.94427E-01 -1.00000E+00  5.70526E-01
       4    -1     0     0   501     0  0.000000000E+00  0.000000000E+00  6.998082644E+01  6.998082644E+01  0.000000000E+00  0.00000E+00  9.000E+00
      21    -1     0     0   502   501  0.000000000E+00  0.000000000E+00 -1.303868250E-02  1.303868250E-02  0.000000000E+00  0.00000E+00  9.000E+00
      23     2     1     2     0     0 -3.015680521E-01 -4.628309193E-01  5.990658871E+01  5.991751251E+01  1.001887448E+00  0.00000E+00  9.000E+00
      11     1     3     3     0     0 -3.379609404E-01 -3.268032576E-01  5.881501130E+01  5.881689020E+01  5.110000000E-04  0.00000E+00  9.000E+00
     -11     1     3     3     0     0  3.639288825E-02 -1.360276618E-01  1.091577412E+00  1.100622312E+00  5.110000000E-04  0.00000E+00  9.000E+00
       4     1     1     2   502     0  3.015680521E-01  4.628309193E-01  1.006119905E+01  1.007635262E+01  0.000000000E+00  0.00000E+00  9.000E+00
#rwgt            1          28  -1999615.9186716187                3     2691478           0
<weights>
-.11145E+08
-.12868E+08
-.92444E+07
-.15646E+08
-.74073E+07
-.91666E+07
-.13909E+08
-.11174E+08
-.11117E+08
-.10828E+08
-.10820E+08
-.10964E+08
-.11010E+08
-.10846E+08
-.10830E+08
-.11225E+08
-.11207E+08
-.11456E+08
-.11495E+08
-.11484E+08
-.11433E+08
-.11493E+08
-.11514E+08
-.11401E+08
-.11328E+08
-.11285E+08
-.11335E+08
-.11428E+08
-.11366E+08
-.11470E+08
-.11506E+08
-.11181E+08
-.11217E+08
-.11138E+08
-.11176E+08
-.11210E+08
-.11099E+08
-.11124E+08
-.11092E+08
-.11164E+08
-.11129E+08
-.11184E+08
-.11105E+08
-.11499E+08
-.10820E+08
</weights>
</event>
<event>
      6  10001 -1.11453E+07  8.94427E-01 -1.00000E+00  2.65375E-01
      21    -1     0     0   502   501  0.000000000E+00  0.000000000E+00  2.503535642E-02  2.503535642E-02  0.000000000E+00  0.00000E+00  9.000E+00
      -2    -1     0     0     0   502  0.000000000E+00  0.000000000E+00 -2.219034866E+02  2.219034866E+02  0.000000000E+00  0.00000E+00  9.000E+00
      23     2     1     2     0     0 -2.404590520E-01  5.459257439E-01 -2.180972413E+02  2.181005455E+02  1.041829569E+00  0.00000E+00  9.000E+00
      11     1     3     3     0     0 -1.160675813E-01 -2.857614131E-01 -3.451423414E+01  3.451561226E+01  5.110000000E-04  0.00000E+00  9.000E+00
     -11     1     3     3     0     0 -1.243914707E-01  8.316871570E-01 -1.835830072E+02  1.835849332E+02  5.110000000E-04  0.00000E+00  9.000E+00
      -2     1     1     2     0   501  2.404590520E-01 -5.459257439E-01 -3.781209965E+00  3.827976524E+00  0.000000000E+00  0.00000E+00  9.000E+00
#rwgt            1          14  -37750990.997529894                3     2692614           0
<weights>
-.11147E+08
-.12004E+08
-.10079E+08
-.14618E+08
-.80772E+07
-.91532E+07
-.13910E+08
-.11038E+08
-.11248E+08
-.11343E+08
-.11305E+08
-.11140E+08
-.11251E+08
-.11317E+08
-.11318E+08
-.11033E+08
-.11198E+08
-.11048E+08
-.10898E+08
-.10877E+08
-.11069E+08
-.10963E+08
-.10970E+08
-.11113E+08
-.10975E+08
-.10994E+08
-.11185E+08
-.10986E+08
-.10968E+08
-.10998E+08
-.10987E+08
-.11257E+08
-.10977E+08
-.11312E+08
-.10984E+08
-.11188E+08
-.11086E+08
-.11369E+08
-.10916E+08
-.11126E+08
-.11148E+08
-.11311E+08
-.10970E+08
-.10950E+08
-.11331E+08
</weights>
</event>
<event>
      6  10001 -1.11453E+07  8.94427E-01 -1.00000E+00  5.77201E-01
      21    -1     0     0   502   501  0.000000000E+00  0.000000000E+00  2.063902307E-02  2.063902307E-02  0.000000000E+00  0.00000E+00  9.000E+00
      -3    -1     0     0     0   502  0.000000000E+00  0.000000000E+00 -6.976877381E+01  6.976877381E+01  0.000000000E+00  0.00000E+00  9.000E+00
      23     2     1     2     0     0  2.872800266E-01 -3.729825575E-01 -6.556298460E+01  6.557786586E+01  1.315254942E+00  0.00000E+00  9.000E+00
      11     1     3     3     0     0 -6.231504581E-02  4.600541706E-01 -2.903381487E+01  2.903752639E+01  5.110000000E-04  0.00000E+00  9.000E+00
     -11     1     3     3     0     0  3.495950724E-01 -8.330367282E-01 -3.652916974E+01  3.654033947E+01  5.110000000E-04  0.00000E+00  9.000E+00
      -3     1     1     2     0   501 -2.872800266E-01  3.729825575E-01 -4.185150188E+00  4.211546972E+00  0.000000000E+00  0.00000E+00  9.000E+00
#rwgt            1          13  -1263069.5466245911                3     2694315           0
<weights>
-.11145E+08
-.12509E+08
-.96253E+07
-.15203E+08
-.77123E+07
-.91702E+07
-.13910E+08
-.11152E+08
-.11137E+08
-.11043E+08
-.11195E+08
-.11338E+08
-.10859E+08
-.11147E+08
-.11135E+08
-.12254E+08
-.96432E+07
-.11471E+08
-.10638E+08
-.10675E+08
-.11390E+08
-.11098E+08
-.11164E+08
-.10458E+08
-.11665E+08
-.10273E+08
-.11014E+08
-.10280E+08
-.12127E+08
-.11016E+08
-.11193E+08
-.11208E+08
-.11078E+08
-.11222E+08
-.11075E+08
-.11226E+08
-.11069E+08
-.10960E+08
-.11364E+08
-.11096E+08
-.11180E+08
-.11239E+08
-.11044E+08
-.11155E+08
-.11123E+08
</weights>
</event>
<event>
      7  10001  1.11453E+07  2.43612E+01 -1.00000E+00  1.59470E-01
       2    -1     0     0   501     0  0.000000000E+00  0.000000000E+00  8.051696814E+01  8.051696814E+01  0.000000000E+00  0.00000E+00  9.000E+00
      21    -1     0     0   502   501  0.000000000E+00  0.000000000E+00 -2.357467749E+00  2.357467749E+00  0.000000000E+00  0.00000E+00  9.000E+00
      23     2     1     2     0     0 -5.862864705E+00  1.205768295E+00  6.447522557E+01  6.479629443E+01  2.382855410E+00  0.00000E+00  9.000E+00
      11     1     3     3     0     0 -6.060938390E+00  1.317450027E+00  6.132145552E+01  6.163433748E+01  5.110000000E-04  0.00000E+00  9.000E+00
     -11     1     3     3     0     0  1.980736851E-01 -1.116817318E-01  3.153770055E+00  3.161956959E+00  5.110000000E-04  0.00000E+00  9.000E+00
       2     1     1     2   511     0  9.519912777E-01  8.651758320E-02  1.290533327E+01  1.294068775E+01  0.000000000E+00  0.00000E+00  9.000E+00
      21     1     1     2   502   511  4.910873427E+00 -1.292285878E+00  7.789415466E-01  5.137453702E+00  2.543170315E-06  0.00000E+00  9.000E+00
#rwgt            2         248   1990130.8988512438                3     2695756           0
<weights>
0.11145E+08
0.10341E+08
0.11906E+08
0.12568E+08
0.95399E+07
0.91702E+07
0.13910E+08
0.11202E+08
0.11085E+08
0.10865E+08
0.10876E+08
0.10975E+08
0.11046E+08
0.10891E+08
0.10884E+08
0.11222E+08
0.11177E+08
0.11408E+08
0.11415E+08
0.11412E+08
0.11387E+08
0.11428E+08
0.11455E+08
0.11293E+08
0.11338E+08
0.11289E+08
0.11131E+08
0.11377E+08
0.11310E+08
0.11399E+08
0.11440E+08
0.11165E+08
0.11213E+08
0.11140E+08
0.11168E+08
0.11237E+08
0.11068E+08
0.11058E+08
0.11160E+08
0.11147E+08
0.11145E+08
0.11171E+08
0.11118E+08
0.11443E+08
0.10869E+08
</weights>
</event>
<event>
      6  10001 -1.11453E+07  8.94427E-01 -1.00000E+00  1.78313E-01
      21    -1     0     0   502   501  0.000000000E+00  0.000000000E+00  2.203325595E-02  2.203325595E-02  0.000000000E+00  0.00000E+00  9.000E+00
       4    -1     0     0   501     0  0.000000000E+00  0.000000000E+00 -3.420759481E+01  3.420759481E+01  0.000000000E+00  0.00000E+00  9.000E+00
      23     2     1     2     0     0 -1.557564999E-01 -3.092655549E-01 -3.115474238E+01  3.117909202E+01  1.182328835E+00  0.00000E+00  9.000E+00
      11     1     3     3     0     0  3.627871932E-01  2.712526240E-01 -1.098724518E+01  1.099657899E+01  5.110000000E-04  0.00000E+00  9.000E+00
     -11     1     3     3     0     0 -5.185436931E-01 -5.805181789E-01 -2.016749720E+01  2.018251304E+01  5.110000000E-04  0.00000E+00  9.000E+00
       4     1     1     2   502     0  1.557564999E-01  3.092655549E-01 -3.030819172E+00  3.050536039E+00  0.000000000E+00  0.00000E+00  9.000E+00
#rwgt            1          19  -4519811.5901417620                3     2696406           0
<weights>
-.11144E+08
-.12954E+08
-.91972E+07
-.15744E+08
-.73693E+07
-.91691E+07
-.13908E+08
-.11242E+08
-.11047E+08
-.10892E+08
-.10979E+08
-.10956E+08
-.11134E+08
-.10961E+08
-.10981E+08
-.11189E+08
-.11133E+08
-.11291E+08
-.11307E+08
-.11301E+08
-.11285E+08
-.11293E+08
-.11339E+08
-.11168E+08
-.11341E+08
-.11306E+08
-.11057E+08
-.11277E+08
-.11174E+08
-.11232E+08
-.11304E+08
-.11095E+08
-.11244E+08
-.11167E+08
-.11123E+08
-.11312E+08
-.10993E+08
-.10785E+08
-.11489E+08
-.11081E+08
-.11203E+08
-.11129E+08
-.11160E+08
-.11347E+08
-.10942E+08
</weights>
</event>
<event>
      7  10001  1.11453E+07  2.39501E+00 -1.00000E+00  3.23507E-01
      21    -1     0     0   502   511  0.000000000E+00  0.000000000E+00  1.465194973E+00  1.465194973E+00  0.000000000E+00  0.00000E+00  9.000E+00
       2    -1     0     0   501     0  0.000000000E+00  0.000000000E+00 -7.288973935E+01  7.288973935E+01  0.000000000E+00  0.00000E+00  9.000E+00
      23     2     1     2     0     0  1.175239897E+00  8.538840625E-01 -2.236419518E+01  2.244581519E+01  1.243819294E+00  0.00000E+00  9.000E+00
      11     1     3     3     0     0 -2.158679014E-01  2.409438095E-01 -2.110231794E+00  2.134884390E+00  5.110000000E-04  0.00000E+00  9.000E+00
     -11     1     3     3     0     0  1.391107798E+00  6.129402530E-01 -2.025396339E+01  2.031093080E+01  5.110000000E-04  0.00000E+00  9.000E+00
       2     1     1     2   502     0 -5.183701280E-01  1.449282512E+00 -4.945746761E+01  4.948141297E+01  0.000000000E+00  0.00000E+00  9.000E+00
      21     1     1     2   501   511 -6.568697690E-01 -2.303166575E+00  3.971184187E-01  2.427706161E+00  1.756820995E-07  0.00000E+00  9.000E+00
#rwgt            1          17   489872.74919237237                3     2697147           0
<weights>
0.11145E+08
0.14870E+08
0.75180E+07
0.12171E+08
0.96292E+07
0.13038E+08
0.79725E+07
0.11219E+08
0.11073E+08
0.11008E+08
0.11071E+08
0.11203E+08
0.10927E+08
0.11050E+08
0.11063E+08
0.11009E+08
0.11346E+08
0.10999E+08
0.11535E+08
0.11566E+08
0.10975E+08
0.11238E+08
0.11224E+08
0.11310E+08
0.11111E+08
0.11095E+08
0.11178E+08
0.11513E+08
0.10758E+08
0.11245E+08
0.11185E+08
0.11184E+08
0.11129E+08
0.10965E+08
0.11395E+08
0.11078E+08
0.11211E+08
0.10994E+08
0.11292E+08
0.11051E+08
0.11219E+08
0.11262E+08
0.11021E+08
0.11245E+08
0.11046E+08
</weights>
</event>
<event>
      6  10001  1.11453E+07  8.94427E-01 -1.00000E+00  6.04605E-01
      21    -1     0     0   502   501  0.000000000E+00  0.000000000E+00  1.345766574E+01  1.345766574E+01  0.000000000E+00  0.00000E+00  9.000E+00
      -4    -1     0     0     0   502  0.000000000E+00  0.000000000E+00 -9.233954291E-01  9.233954291E-01  0.000000000E+00  0.00000E+00  9.000E+00
      23     2     1     2     0     0 -1.664722393E+00  5.159471585E-01  4.471033365E+00  6.131619238E+00  3.816950749E+00  0.00000E+00  9.000E+00
      11     1     3     3     0     0 -5.197227680E-01 -1.575386408E+00  2.670770527E+00  3.144037143E+00  5.110000000E-04  0.00000E+00  9.000E+00
     -11     1     3     3     0     0 -1.144999625E+00  2.091333567E+00  1.800262838E+00  2.987582095E+00  5.110000000E-04  0.00000E+00  9.000E+00
      -4     1     1     2     0   501  1.664722393E+00 -5.159471585E-01  8.063236946E+00  8.249441930E+00  0.000000000E+00  0.00000E+00  9.000E+00
#rwgt            1          12   635205.49303535989                3     2700888           0
<weights>
0.11145E+08
0.12998E+08
0.92876E+07
0.12437E+08
0.95923E+07
0.11425E+08
0.10448E+08
0.11197E+08
0.11089E+08
0.10756E+08
0.10723E+08
0.10922E+08
0.10974E+08
0.10765E+08
0.10738E+08
0.11243E+08
0.11252E+08
0.11565E+08
0.11569E+08
0.11566E+08
0.11532E+08
0.11608E+08
0.11616E+08
0.11422E+08
0.11401E+08
0.11380E+08
0.11147E+08
0.11548E+08
0.11418E+08
0.11591E+08
0.11619E+08
0.11213E+08
0.11219E+08
0.11124E+08
0.11200E+08
0.11241E+08
0.11070E+08
0.11211E+08
0.10989E+08
0.11193E+08
0.11106E+08
0.11187E+08
0.11102E+08
0.11599E+08
0.10731E+08
</weights>
</event>
<event>
      7  10001  1.11453E+07  8.94427E-01 -1.00000E+00  6.07649E-01
       4    -1     0     0   501     0  0.000000000E+00  0.000000000E+00  2.740492995E-02  2.740492995E-02  0.000000000E+00  0.00000E+00  9.000E+00
      21    -1     0     0   502   501  0.000000000E+00  0.000000000E+00 -1.681121046E+01  1.681121046E+01  0.000000000E+00  0.00000E+00  9.000E+00
      23     2     1     2     0     0  1.767020640E-01  5.587486104E-03 -1.276934707E+01  1.281068666E+01  1.013021818E+00  0.00000E+00  9.000E+00
      11     1     3     3     0     0  6.681196388E-02  3.513961073E-01 -1.093217959E+01  1.093802971E+01  5.110000000E-04  0.00000E+00  9.000E+00
     -11     1     3     3     0     0  1.098901002E-01 -3.458086212E-01 -1.837167477E+00  1.872656946E+00  5.110000000E-04  0.00000E+00  9.000E+00
       4     1     1     2   511     0 -4.258404097E-02 -5.906745375E-02 -2.422359010E-01  2.529438601E-01  0.000000000E+00  0.00000E+00  9.000E+00
      21     1     1     2   502   511 -1.341180231E-01  5.347996764E-02 -3.772222561E+00  3.774984874E+00  7.300048300E-08  0.00000E+00  9.000E+00
#rwgt            2         308   25518355.728284340                3     2728814           0
<weights>
0.11145E+08
0.11805E+08
0.10179E+08
0.14347E+08
0.81556E+07
0.91702E+07
0.13910E+08
0.11215E+08
0.11074E+08
0.10915E+08
0.10957E+08
0.10992E+08
0.11093E+08
0.10952E+08
0.10960E+08
0.11206E+08
0.11147E+08
0.11327E+08
0.11335E+08
0.11331E+08
0.11313E+08
0.11332E+08
0.11374E+08
0.11202E+08
0.11333E+08
0.11285E+08
0.11068E+08
0.11298E+08
0.11232E+08
0.11293E+08
0.11344E+08
0.11134E+08
0.11216E+08
0.11148E+08
0.11151E+08
0.11260E+08
0.11044E+08
0.10950E+08
0.11279E+08
0.11120E+08
0.11169E+08
0.11155E+08
0.11135E+08
0.11363E+08
0.10938E+08
</weights>
</event>
<event>
      6  10001 -1.11453E+07  8.94427E-01 -1.00000E+00  3.58301E-01
       2    -1     0     0   501     0  0.000000000E+00  0.000000000E+00  4.625467531E+02  4.625467531E+02  0.000000000E+00  0.00000E+00  9.000E+00
      21    -1     0     0   502   501  0.000000000E+00  0.000000000E+00 -1.048708642E-02  1.048708642E-02  0.000000000E+00  0.00000E+00  9.000E+00
      23     2     1     2     0     0  2.148547460E-01  1.422310464E-01  4.599769196E+02  4.599849559E+02  2.706792337E+00  0.00000E+00  9.000E+00
      11     1     3     3     0     0 -3.294094586E-01 -1.721862906E-01  4.349042173E+02  4.349043761E+02  5.110000000E-04  0.00000E+00  9.000E+00
     -11     1     3     3     0     0  5.442642046E-01  3.144173371E-01  2.507270227E+01  2.508057976E+01  5.110000000E-04  0.00000E+00  9.000E+00
       2     1     1     2   502     0 -2.148547460E-01 -1.422310464E-01  2.559346416E+00  2.572284259E+00  0.000000000E+00  0.00000E+00  9.000E+00
#rwgt            1          24  -27230547.266716737                3     2729160           0
<weights>
-.11145E+08
-.11922E+08
-.10146E+08
-.14498E+08
-.81301E+07
-.91654E+07
-.13909E+08
-.11173E+08
-.11119E+08
-.10827E+08
-.10818E+08
-.10963E+08
-.11009E+08
-.10845E+08
-.10829E+08
-.11225E+08
-.11208E+08
-.11457E+08
-.11498E+08
-.11486E+08
-.11434E+08
-.11496E+08
-.11515E+08
-.11405E+08
-.11328E+08
-.11286E+08
-.11345E+08
-.11430E+08
-.11367E+08
-.11473E+08
-.11508E+08
-.11182E+08
-.11217E+08
-.11138E+08
-.11177E+08
-.11210E+08
-.11100E+08
-.11126E+08
-.11090E+08
-.11165E+08
-.11129E+08
-.11184E+08
-.11105E+08
-.11501E+08
-.10818E+08
</weights>
</event>
<event>
      6  10001 -1.11453E+07  8.94427E-01 -1.00000E+00  6.30822E-01
       2    -1     0     0   501     0  0.000000000E+00  0.000000000E+00  5.278401326E+01  5.278401326E+01  0.000000000E+00  0.00000E+00  9.000E+00
      21    -1     0     0   502   501  0.000000000E+00  0.000000000E+00 -1.998120290E-02  1.998120290E-02  0.000000000E+00  0.00000E+00  9.000E+00
      23     2     1     2     0     0 -5.113518519E-01 -2.680896695E-01  3.131350739E+01  3.134570093E+01  1.297639793E+00  0.00000E+00  9.000E+00
      11     1     3     3     0     0 -3.306150661E-01  4.990772379E-01  1.696887226E+01  1.697942904E+01  5.110000000E-04  0.00000E+00  9.000E+00
     -11     1     3     3     0     0 -1.807367859E-01 -7.671669073E-01  1.434463513E+01  1.436627189E+01  5.110000000E-04  0.00000E+00  9.000E+00
       2     1     1     2   502     0  5.113518519E-01  2.680896695E-01  2.145052467E+01  2.145829354E+01  0.000000000E+00  0.00000E+00  9.000E+00
#rwgt            1          24  -6664345.1500661978                3     2729784           0
<weights>
-.11145E+08
-.14556E+08
-.70144E+07
-.17703E+08
-.56206E+07
-.91635E+07
-.13909E+08
-.11175E+08
-.11116E+08
-.10834E+08
-.10830E+08
-.10968E+08
-.11013E+08
-.10854E+08
-.10839E+08
-.11223E+08
-.11207E+08
-.11445E+08
-.11487E+08
-.11476E+08
-.11423E+08
-.11482E+08
-.11504E+08
-.11391E+08
-.11327E+08
-.11283E+08
-.11331E+08
-.11419E+08
-.11358E+08
-.11458E+08
-.11494E+08
-.11180E+08
-.11215E+08
-.11140E+08
-.11173E+08
-.11211E+08
-.11098E+08
-.11113E+08
-.11105E+08
-.11162E+08
-.11131E+08
-.11182E+08
-.11106E+08
-.11489E+08
-.10828E+08
</weights>
</event>
<event>
      6  10001 -1.11453E+07  8.94427E-01 -1.00000E+00  1.87792E-01
      -1    -1     0     0     0   502  0.000000000E+00  0.000000000E+00  2.484168646E-02  2.484168646E-02  0.000000000E+00  0.00000E+00  9.000E+00
      21    -1     0     0   502   501  0.000000000E+00  0.000000000E+00 -3.069449946E+01  3.069449946E+01  0.000000000E+00  0.00000E+00  9.000E+00
      23     2     1     2     0     0  2.452789881E-01  1.475079549E-01 -2.312714016E+01  2.317139491E+01  1.402501300E+00  0.00000E+00  9.000E+00
      11     1     3     3     0     0 -3.376878734E-01 -3.667097114E-01 -4.403916774E+00  4.432041553E+00  5.110000000E-04  0.00000E+00  9.000E+00
     -11     1     3     3     0     0  5.829668614E-01  5.142176663E-01 -1.872322338E+01  1.873935336E+01  5.110000000E-04  0.00000E+00  9.000E+00
      -1     1     1     2     0   501 -2.452789881E-01 -1.475079549E-01 -7.542517621E+00  7.547946240E+00  0.000000000E+00  0.00000E+00  9.000E+00
#rwgt            1           9  -872691.44792769104                3     2731781           0
<weights>
-.11145E+08
-.12613E+08
-.94960E+07
-.15329E+08
-.76087E+07
-.91702E+07
-.13910E+08
-.11218E+08
-.11072E+08
-.10945E+08
-.11004E+08
-.11002E+08
-.11122E+08
-.10991E+08
-.11005E+08
-.11195E+08
-.11127E+08
-.11278E+08
-.11284E+08
-.11280E+08
-.11270E+08
-.11277E+08
-.11319E+08
-.11165E+08
-.11314E+08
-.11270E+08
-.11065E+08
-.11252E+08
-.11190E+08
-.11233E+08
-.11288E+08
-.11116E+08
-.11218E+08
-.11155E+08
-.11139E+08
-.11268E+08
-.11035E+08
-.10897E+08
-.11363E+08
-.11103E+08
-.11184E+08
-.11145E+08
-.11146E+08
-.11316E+08
-.10979E+08
</weights>
</event>
<event>
      7  10001  1.11453E+07  1.72527E+00 -1.00000E+00  3.83789E-01
       3    -1     0     0   501     0  0.000000000E+00  0.000000000E+00  6.234873301E+00  6.234873301E+00  0.000000000E+00  0.00000E+00  9.000E+00
      -4    -1     0     0     0   501  0.000000000E+00  0.000000000E+00 -1.947541536E+00  1.947541536E+00  0.000000000E+00  0.00000E+00  9.000E+00
      23     2     1     2     0     0 -8.283984333E-01  9.600876617E-01 -3.351368081E-01  1.900991642E+00  1.376023351E+00  0.00000E+00  9.000E+00
      11     1     3     3     0     0 -6.694885221E-01  6.726262673E-01 -8.607274657E-01  1.281207637E+00  5.110000000E-04  0.00000E+00  9.000E+00
     -11     1     3     3     0     0 -1.589099112E-01  2.874613944E-01  5.255906577E-01  6.197840057E-01  5.110000000E-04  0.00000E+00  9.000E+00
       3     1     1     2   502     0  2.399793707E+00 -2.478645421E-01  3.391383398E+00  4.161962040E+00  0.000000000E+00  0.00000E+00  9.000E+00
      -4     1     1     2     0   502 -1.571395274E+00 -7.122231195E-01  1.231085175E+00  2.119461155E+00  0.000000000E+00  0.00000E+00  9.000E+00
#rwgt            2         264   53144.870122853739                3     2732947           0
<weights>
0.11145E+08
0.11561E+08
0.10475E+08
0.14051E+08
0.83934E+07
0.91702E+07
0.13910E+08
0.11206E+08
0.11080E+08
0.10817E+08
0.10814E+08
0.10948E+08
0.11022E+08
0.10837E+08
0.10824E+08
0.11229E+08
0.11211E+08
0.11473E+08
0.11477E+08
0.11474E+08
0.11447E+08
0.11500E+08
0.11523E+08
0.11330E+08
0.11378E+08
0.11346E+08
0.11100E+08
0.11451E+08
0.11344E+08
0.11474E+08
0.11512E+08
0.11182E+08
0.11217E+08
0.11133E+08
0.11181E+08
0.11251E+08
0.11057E+08
0.11103E+08
0.11099E+08
0.11164E+08
0.11131E+08
0.11174E+08
0.11116E+08
0.11508E+08
0.10811E+08
</weights>
</event>
<event>
      6  10001 -1.11453E+07  8.94427E-01 -1.00000E+00  1.74875E-01
      21    -1     0     0   502   501  0.000000000E+00  0.000000000E+00  8.784548251E-03  8.784548251E-03  0.000000000E+00  0.00000E+00  9.000E+00
      -2    -1     0     0     0   502  0.000000000E+00  0.000000000E+00 -1.099258624E+02  1.099258624E+02  0.000000000E+00  0.00000E+00  9.000E+00
      23     2     1     2     0     0  1.078967409E-01  4.892825508E-01 -8.725015873E+01  8.726219094E+01  1.359679945E+00  0.00000E+00  9.000E+00
      11     1     3     3     0     0  1.034992792E-01 -2.420460435E-02 -7.623061408E+01  7.623068819E+01  5.110000000E-04  0.00000E+00  9.000E+00
     -11     1     3     3     0     0  4.397461668E-03  5.134871551E-01 -1.101954465E+01  1.103150275E+01  5.110000000E-04  0.00000E+00  9.000E+00
      -2     1     1     2     0   501 -1.078967409E-01 -4.892825508E-01 -2.266691914E+01  2.267245603E+01  0.000000000E+00  0.00000E+00  9.000E+00
#rwgt            1          14  -2889485.6157811172                3     2733388           0
<weights>
-.11145E+08
-.12791E+08
-.92602E+07
-.15546E+08
-.74197E+07
-.91702E+07
-.13910E+08
-.11156E+08
-.11133E+08
-.11188E+08
-.11216E+08
-.11101E+08
-.11180E+08
-.11228E+08
-.11224E+08
-.11053E+08
-.11189E+08
-.11116E+08
-.10968E+08
-.10942E+08
-.11136E+08
-.11051E+08
-.11032E+08
-.11140E+08
-.11043E+08
-.11099E+08
-.11133E+08
-.11065E+08
-.10984E+08
-.11045E+08
-.11057E+08
-.11145E+08
-.11114E+08
-.11290E+08
-.11001E+08
-.11072E+08
-.11197E+08
-.11094E+08
-.11225E+08
-.11096E+08
-.11175E+08
-.11277E+08
-.11004E+08
-.11061E+08
-.11213E+08
</weights>
</event>
<event>
      7  10001  1.11453E+07  1.87258E+00 -1.00000E+00  3.66631E-01
      -2    -1     0     0     0   502  0.000000000E+00  0.000000000E+00  2.984661109E+00  2.984661109E+00  0.000000000E+00  0.00000E+00  9.000E+00
      21    -1     0     0   502   501  0.000000000E+00  0.000000000E+00 -1.222545439E+00  1.222545439E+00  0.000000000E+00  0.00000E+00  9.000E+00
      23     2     1     2     0     0  1.729754283E-01  2.874184300E-01  2.248522470E+00  2.562857527E+00  1.183154915E+00  0.00000E+00  9.000E+00
      11     1     3     3     0     0  5.622795013E-01  3.520265294E-01  1.973059426E+00  2.081596665E+00  5.110000000E-04  0.00000E+00  9.000E+00
     -11     1     3     3     0     0 -3.893040731E-01 -6.460809938E-02  2.754630440E-01  4.812608622E-01  5.110000000E-04  0.00000E+00  9.000E+00
      -2     1     1     2     0   511 -6.533891168E-01 -4.542180397E-01  1.702796392E-01  8.137730157E-01  0.000000000E+00  0.00000E+00  9.000E+00
      21     1     1     2   511   501  4.804136885E-01  1.667996097E-01 -6.566864394E-01  8.305760059E-01  4.942156062E-08  0.00000E+00  9.000E+00
#rwgt            1           7   1690246.7456343323                3     2736192           0
<weights>
0.11145E+08
0.13291E+08
0.95414E+07
0.10690E+08
0.10970E+08
0.12751E+08
0.84137E+07
0.11198E+08
0.11087E+08
0.10587E+08
0.10530E+08
0.10857E+08
0.10860E+08
0.10587E+08
0.10545E+08
0.11274E+08
0.11329E+08
0.11754E+08
0.11799E+08
0.11792E+08
0.11705E+08
0.11829E+08
0.11844E+08
0.11604E+08
0.11484E+08
0.11446E+08
0.11281E+08
0.11734E+08
0.11575E+08
0.11813E+08
0.11846E+08
0.11252E+08
0.11248E+08
0.11123E+08
0.11218E+08
0.11237E+08
0.11083E+08
0.11304E+08
0.10856E+08
0.11243E+08
0.11061E+08
0.11218E+08
0.11069E+08
0.11809E+08
0.10544E+08
</weights>
</event>
<event>
      6  10001 -1.11453E+07  8.94427E-01 -1.00000E+00  4.44728E-01
      21    -1     0     0   502   501  0.000000000E+00  0.000000000E+00  8.137356244E-03  8.137356244E-03  0.000000000E+00  0.00000E+00  9.000E+00
       2    -1     0     0   501     0  0.000000000E+00  0.000000000E+00 -2.424014445E+02  2.424014445E+02  0.000000000E+00  0.00000E+00  9.000E+00
      23     2     1     2     0     0 -2.389115449E-01 -8.595931637E-01 -1.517959530E+02  1.518078348E+02  1.676723461E+00  0.00000E+00  9.000E+00
      11     1     3     3     0     0 -7.806601854E-01 -7.775124836E-01 -5.914490348E+01  5.915516515E+01  5.110000000E-04  0.00000E+00  9.000E+00
     -11     1     3     3     0     0  5.417486405E-01 -8.208068010E-02 -9.265104949E+01  9.265266969E+01  5.110000000E-04  0.00000E+00  9.000E+00
       2     1     1     2   502     0  2.389115449E-01  8.595931637E-01 -9.059735415E+01  9.060174699E+01  0.000000000E+00  0.00000E+00  9.000E+00
#rwgt            1          17  -12592962.886608915                3     2776136           0
<weights>
-.11145E+08
-.13732E+08
-.80320E+07
-.16690E+08
-.64356E+07
-.91702E+07
-.13910E+08
-.11128E+08
-.11162E+08
-.11172E+08
-.11166E+08
-.11080E+08
-.11227E+08
-.11168E+08
-.11167E+08
-.11323E+08
-.10870E+08
-.11278E+08
-.10903E+08
-.10876E+08
-.11292E+08
-.11103E+08
-.11146E+08
-.11158E+08
-.11080E+08
-.11161E+08
-.11126E+08
-.10981E+08
-.11270E+08
-.11096E+08
-.11146E+08
-.11048E+08
-.11235E+08
-.11276E+08
-.10972E+08
-.11134E+08
-.11153E+08
-.11171E+08
-.11120E+08
-.11177E+08
-.11114E+08
-.11159E+08
-.11130E+08
-.11119E+08
-.11170E+08
</weights>
</event>
<event>
      7  10001  1.11453E+07  1.17102E+00 -1.00000E+00  5.05054E-01
      -2    -1     0     0     0   502  0.000000000E+00  0.000000000E+00  1.030387601E-01  1.030387601E-01  0.000000000E+00  0.00000E+00  9.000E+00
       2    -1     0     0   501     0  0.000000000E+00  0.000000000E+00 -5.456926101E+01  5.456926101E+01  0.000000000E+00  0.00000E+00  9.000E+00
      23     2     1     2     0     0 -7.589618775E-01 -8.152123748E-02 -1.036033488E+01  1.054336889E+01  1.800949743E+00  0.00000E+00  9.000E+00
      11     1     3     3     0     0  2.201000250E-01 -6.119508380E-01 -6.288027715E+00  6.321567895E+00  5.110000000E-04  0.00000E+00  9.000E+00
     -11     1     3     3     0     0 -9.790619024E-01  5.304296005E-01 -4.072307162E+00  4.221800996E+00  5.110000000E-04  0.00000E+00  9.000E+00
      21     1     1     2   511   502  8.748871622E-01  3.196887486E-01 -2.008915866E+01  2.011074151E+01  0.000000000E+00  0.00000E+00  9.000E+00
      21     1     1     2   501   511 -1.159252848E-01 -2.381675111E-01 -2.401672871E+01  2.401818937E+01  0.000000000E+00  0.00000E+00  9.000E+00
#rwgt            1           8   591523.98526840052                3     2779110           0
<weights>
0.11145E+08
0.12163E+08
0.10128E+08
0.12257E+08
0.97667E+07
0.10872E+08
0.11297E+08
0.11204E+08
0.11088E+08
0.11040E+08
0.11095E+08
0.11153E+08
0.11025E+08
0.11083E+08
0.11093E+08
0.11072E+08
0.11242E+08
0.11056E+08
0.11376E+08
0.11393E+08
0.11042E+08
0.11199E+08
0.11190E+08
0.11246E+08
0.11124E+08
0.11118E+08
0.11155E+08
0.11372E+08
0.10884E+08
0.11194E+08
0.11167E+08
0.11154E+08
0.11150E+08
0.11036E+08
0.11296E+08
0.11127E+08
0.11164E+08
0.10986E+08
0.11312E+08
0.11063E+08
0.11212E+08
0.11216E+08
0.11070E+08
0.11213E+08
0.11074E+08
</weights>
</event>
<event>
      6  10001 -1.11453E+07  8.94427E-01 -1.00000E+00  1.52064E-01
      -4    -1     0     0     0   502  0.000000000E+00  0.000000000E+00  1.512041657E-02  1.512041657E-02  0.000000000E+00  0.00000E+00  9.000E+00
      21    -1     0     0   502   501  0.000000000E+00  0.000000000E+00 -5.393883235E+01  5.393883235E+01  0.000000000E+00  0.00000E+00  9.000E+00
      23     2     1     2     0     0  3.453733577E-01 -2.038586934E-01 -4.480328335E+01  4.482471081E+01  1.326521503E+00  0.00000E+00  9.000E+00
      11     1     3     3     0     0 -2.311235213E-01  1.061986733E-01 -3.435549234E+01  3.435643390E+01  5.110000000E-04  0.00000E+00  9.000E+00
     -11     1     3     3     0     0  5.764968791E-01 -3.100573667E-01 -1.044779101E+01  1.046827691E+01  5.110000000E-04  0.00000E+00  9.000E+00
      -4     1     1     2     0   501 -3.453733577E-01  2.038586934E-01 -9.120428579E+00  9.129241950E+00  0.000000000E+00  0.00000E+00  9.000E+00
#rwgt            1           3  -495040.78037012479                3     2788252           0
<weights>
-.11145E+08
-.12399E+08
-.96528E+07
-.15069E+08
-.77343E+07
-.91702E+07
-.13910E+08
-.11207E+08
-.11085E+08
-.11020E+08
-.11085E+08
-.11027E+08
-.11175E+08
-.11077E+08
-.11089E+08
-.11179E+08
-.11092E+08
-.11195E+08
-.11175E+08
-.11170E+08
-.11195E+08
-.11186E+08
-.11200E+08
-.11124E+08
-.11238E+08
-.11213E+08
-.11084E+08
-.11172E+08
-.11129E+08
-.11142E+08
-.11190E+08
-.11100E+08
-.11206E+08
-.11158E+08
-.11130E+08
-.11257E+08
-.11043E+08
-.10878E+08
-.11435E+08
-.11078E+08
-.11207E+08
-.11130E+08
-.11161E+08
-.11224E+08
-.11059E+08
</weights>
</event>
<event>
      6  10001 -1.11453E+07  8.94427E-01 -1.00000E+00  4.95105E-01
      21    -1     0     0   502   501  0.000000000E+00  0.000000000E+00  1.968685718E-02  1.968685718E-02  0.000000000E+00  0.00000E+00  9.000E+00
      -2    -1     0     0     0   502  0.000000000E+00  0.000000000E+00 -1.897965110E+02  1.897965110E+02  0.000000000E+00  0.00000E+00  9.000E+00
      23     2     1     2     0     0  8.750068611E-01  2.909373296E-01 -1.492275196E+02  1.492564101E+02  2.788023943E+00  0.00000E+00  9.000E+00
      11     1     3     3     0     0 -8.320835183E-01 -5.638078716E-01 -6.055742717E+01  6.056576779E+01  5.110000000E-04  0.00000E+00  9.000E+00
     -11     1     3     3     0     0  1.707090379E+00  8.547452012E-01 -8.867009240E+01  8.869064231E+01  5.110000000E-04  0.00000E+00  9.000E+00
      -2     1     1     2     0   501 -8.750068611E-01 -2.909373296E-01 -4.054930462E+01  4.055978780E+01  0.000000000E+00  0.00000E+00  9.000E+00
#rwgt            1          14  -2221513.7888200250                3     2791179           0
<weights>
-.11145E+08
-.11996E+08
-.10130E+08
-.14580E+08
-.81170E+07
-.91702E+07
-.13910E+08
-.11068E+08
-.11217E+08
-.11309E+08
-.11287E+08
-.11132E+08
-.11234E+08
-.11301E+08
-.11299E+08
-.11035E+08
-.11194E+08
-.11060E+08
-.10904E+08
-.10881E+08
-.11081E+08
-.10979E+08
-.10974E+08
-.11119E+08
-.10980E+08
-.11014E+08
-.11173E+08
-.11000E+08
-.10966E+08
-.11004E+08
-.10997E+08
-.11226E+08
-.11010E+08
-.11307E+08
-.10986E+08
-.11148E+08
-.11121E+08
-.11301E+08
-.10990E+08
-.11116E+08
-.11155E+08
-.11302E+08
-.10976E+08
-.10970E+08
-.11306E+08
</weights>
</event>
<event>
      6  10001  1.11453E+07  8.94427E-01 -1.00000E+00  5.50887E-01
      21    -1     0     0   502   501  0.000000000E+00  0.000000000E+00  6.769180527E-01  6.769180527E-01  0.000000000E+00  0.00000E+00  9.000E+00
       4    -1     0     0   501     0  0.000000000E+00  0.000000000E+00 -1.636498611E+00  1.636498611E+00  0.000000000E+00  0.00000E+00  9.000E+00
      23     2     1     2     0     0  7.614651643E-02 -2.876960739E-01 -1.356241721E+00  1.817526151E+00  1.172792556E+00  0.00000E+00  9.000E+00
      11     1     3     3     0     0 -1.329144040E-01  1.165919165E-01 -1.350828971E+00  1.362350573E+00  5.110000000E-04  0.00000E+00  9.000E+00
     -11     1     3     3     0     0  2.090609204E-01 -4.042879904E-01 -5.412749840E-03  4.551755777E-01  5.110000000E-04  0.00000E+00  9.000E+00
       4     1     1     2   502     0 -7.614651643E-02  2.876960739E-01  3.966611625E-01  4.958905129E-01  0.000000000E+00  0.00000E+00  9.000E+00
#rwgt            1          19   55135.658720479070                3     2792226           0
<weights>
0.11145E+08
0.58918E+08
-.28065E+08
-.58551E+07
0.19261E+08
0.57223E+08
-.59855E+08
0.11188E+08
0.11062E+08
0.87162E+07
0.78937E+07
0.99256E+07
0.96791E+07
0.84219E+07
0.80254E+07
0.11654E+08
0.12643E+08
0.14515E+08
0.14366E+08
0.14395E+08
0.14231E+08
0.14930E+08
0.14622E+08
0.13615E+08
0.12706E+08
0.13247E+08
0.10899E+08
0.14754E+08
0.13366E+08
0.15116E+08
0.14922E+08
0.12091E+08
0.11331E+08
0.10802E+08
0.11812E+08
0.11410E+08
0.10993E+08
0.13918E+08
0.78229E+07
0.12032E+08
0.10388E+08
0.11451E+08
0.10828E+08
0.14505E+08
0.81712E+07
</weights>
</event>
<event>
      7  10001 -1.11453E+07  1.45525E+00 -1.00000E+00  4.36165E-01
      21    -1     0     0   511   501  0.000000000E+00  0.000000000E+00  4.485855747E+02  4.485855747E+02  0.000000000E+00  0.00000E+00  9.000E+00
       2    -1     0     0   501     0  0.000000000E+00  0.000000000E+00 -9.332398678E+01  9.332398678E+01  0.000000000E+00  0.00000E+00  9.000E+00
      23     2     1     2     0     0  3.704910034E-01 -9.740417308E-01 -6.705869057E+01  6.709386397E+01  1.905933036E+00  0.00000E+00  9.000E+00
      11     1     3     3     0     0  8.348424825E-01 -8.244584670E-01 -6.213213067E+01  6.214320844E+01  5.110000000E-04  0.00000E+00  9.000E+00
     -11     1     3     3     0     0 -4.643514791E-01 -1.495832638E-01 -4.926559903E+00  4.950655531E+00  5.110000000E-04  0.00000E+00  9.000E+00
       2     1     1     2   502     0  1.079813945E+00  8.542213358E-01 -2.622847259E+01  2.626458579E+01  0.000000000E+00  0.00000E+00  9.000E+00
      21     1     1     2   511   502 -1.450304949E+00  1.198203950E-01  4.485487510E+02  4.485511117E+02  0.000000000E+00  0.00000E+00  9.000E+00
#rwgt            1          17  -86594242.796274930                3     2797684           0
<weights>
-.11145E+08
-.11368E+08
-.10697E+08
-.13895E+08
-.85220E+07
-.91184E+07
-.13989E+08
-.11159E+08
-.11131E+08
-.11139E+08
-.11160E+08
-.11160E+08
-.11108E+08
-.11159E+08
-.11161E+08
-.11166E+08
-.11079E+08
-.11078E+08
-.11179E+08
-.11187E+08
-.11073E+08
-.11125E+08
-.11119E+08
-.11231E+08
-.11031E+08
-.11070E+08
-.11177E+08
-.11225E+08
-.10969E+08
-.11133E+08
-.11114E+08
-.11129E+08
-.11153E+08
-.11088E+08
-.11216E+08
-.11133E+08
-.11152E+08
-.11107E+08
-.11195E+08
-.11095E+08
-.11185E+08
-.11195E+08
-.11092E+08
-.11131E+08
-.11154E+08
</weights>
</event>
<event>
      6  10001 -1.11453E+07  8.94427E-01 -1.00000E+00  5.71058E-01
      -2    -1     0     0     0   502  0.000000000E+00  0.000000000E+00  2.999092215E-03  2.999092215E-03  0.000000000E+00  0.00000E+00  9.000E+00
      21    -1     0     0   502   501  0.000000000E+00  0.000000000E+00 -3.302671653E+02  3.302671653E+02  0.000000000E+00  0.00000E+00  9.000E+00
      23     2     1     2     0     0  2.612270588E-01  1.068156284E-01 -3.204836514E+02  3.204855786E+02  1.075001793E+00  0.00000E+00  9.000E+00
      11     1     3     3     0     0  2.028743014E-01 -4.329799476E-01 -2.148340577E+02  2.148345898E+02  5.110000000E-04  0.00000E+00  9.000E+00
     -11     1     3     3     0     0  5.835275743E-02  5.397955760E-01 -1.056495938E+02  1.056509889E+02  5.110000000E-04  0.00000E+00  9.000E+00
      -2     1     1     2     0   501 -2.612270588E-01 -1.068156284E-01 -9.780514717E+00  9.784585698E+00  0.000000000E+00  0.00000E+00  9.000E+00
#rwgt            1           7  -2941.7029145189813                3     2805049           0
<weights>
-.11145E+08
-.12480E+08
-.93761E+07
-.15168E+08
-.75126E+07
-.91702E+07
-.13910E+08
-.10940E+08
-.11348E+08
-.11716E+08
-.11458E+08
-.11262E+08
-.11521E+08
-.11544E+08
-.11528E+08
-.11015E+08
-.11166E+08
-.10779E+08
-.10785E+08
-.10796E+08
-.10803E+08
-.10763E+08
-.10716E+08
-.11130E+08
-.10655E+08
-.10834E+08
-.11278E+08
-.10898E+08
-.10929E+08
-.10874E+08
-.10746E+08
-.11247E+08
-.10919E+08
-.11068E+08
-.11220E+08
-.10948E+08
-.11317E+08
-.11690E+08
-.10609E+08
-.11033E+08
-.11255E+08
-.11030E+08
-.11269E+08
-.10693E+08
-.11584E+08
</weights>
</event>
<event>
      7  10001  1.11453E+07  4.16671E+00 -1.00000E+00  2.56318E-01
       4    -1     0     0   501     0  0.000000000E+00  0.000000000E+00  9.774927798E+01  9.774927798E+01  0.000000000E+00  0.00000E+00  9.000E+00
      21    -1     0     0   511   501  0.000000000E+00  0.000000000E+00 -4.863268055E+01  4.863268055E+01  0.000000000E+00  0.00000E+00  9.000E+00
      23     2     1     2     0     0 -6.629256491E-02  9.457975342E-02  4.725188620E+01  4.726616378E+01  1.155919188E+00  0.00000E+00  9.000E+00
      11     1     3     3     0     0  5.210000342E-01  1.957427480E-01  2.579405343E+01  2.580005715E+01  5.110000000E-04  0.00000E+00  9.000E+00
     -11     1     3     3     0     0 -5.872925991E-01 -1.011629945E-01  2.145783277E+01  2.146610663E+01  5.110000000E-04  0.00000E+00  9.000E+00
       4     1     1     2   502     0  4.193317749E+00 -6.682839224E-01  5.031139181E+01  5.049026305E+01  0.000000000E+00  0.00000E+00  9.000E+00
      21     1     1     2   511   502 -4.127025184E+00  5.737041690E-01 -4.844668058E+01  4.862553169E+01  6.743495762E-07  0.00000E+00  9.000E+00
#rwgt            1          28   387849.74435813085                3     2806676           0
<weights>
0.11145E+08
0.14065E+08
0.82022E+07
0.13492E+08
0.86592E+07
0.11486E+08
0.10355E+08
0.11149E+08
0.11145E+08
0.10776E+08
0.10743E+08
0.10944E+08
0.10966E+08
0.10785E+08
0.10757E+08
0.11233E+08
0.11248E+08
0.11529E+08
0.11591E+08
0.11573E+08
0.11501E+08
0.11585E+08
0.11594E+08
0.11516E+08
0.11333E+08
0.11303E+08
0.11500E+08
0.11507E+08
0.11434E+08
0.11570E+08
0.11597E+08
0.11206E+08
0.11220E+08
0.11132E+08
0.11191E+08
0.11189E+08
0.11125E+08
0.11218E+08
0.10998E+08
0.11188E+08
0.11108E+08
0.11197E+08
0.11091E+08
0.11577E+08
0.10752E+08
</weights>
</event>
<event>
      7  10001  1.11453E+07  1.87161E+00 -1.00000E+00  3.66734E-01
       1    -1     0     0   502     0  0.000000000E+00  0.000000000E+00  1.511709787E+00  1.511709787E+00  0.000000000E+00  0.00000E+00  9.000E+00
      -1    -1     0     0     0   502  0.000000000E+00  0.000000000E+00 -8.772509595E+01  8.772509595E+01  0.000000000E+00  0.00000E+00  9.000E+00
      23     2     1     2     0     0  3.706225245E+00 -1.433555045E+00 -6.583521910E+00  8.007442199E+00  2.232752606E+00  0.00000E+00  9.000E+00
      11     1     3     3     0     0  3.860538442E+00 -1.639246226E+00 -6.502589816E+00  7.737865328E+00  5.110000000E-04  0.00000E+00  9.000E+00
     -11     1     3     3     0     0 -1.543131972E-01  2.056911810E-01 -8.093209426E-02  2.695768718E-01  5.110000000E-04  0.00000E+00  9.000E+00
      -1     1     1     2     0   501 -2.526691029E+00  2.886698041E+00 -7.922072197E+01  7.931355485E+01  0.000000000E+00  0.00000E+00  9.000E+00
       1     1     1     2   501     0 -1.179534216E+00 -1.453142996E+00 -4.091422856E-01  1.915808692E+00  0.000000000E+00  0.00000E+00  9.000E+00
#rwgt            2         212   36439.351281569878                3     2823130           0
<weights>
0.11145E+08
0.10379E+08
0.11953E+08
0.12614E+08
0.95776E+07
0.91702E+07
0.13910E+08
0.11180E+08
0.11109E+08
0.11135E+08
0.11181E+08
0.11092E+08
0.11141E+08
0.11183E+08
0.11183E+08
0.11054E+08
0.11208E+08
0.11155E+08
0.11013E+08
0.10984E+08
0.11173E+08
0.11091E+08
0.11084E+08
0.11151E+08
0.11089E+08
0.11144E+08
0.11112E+08
0.11098E+08
0.10997E+08
0.11076E+08
0.11097E+08
0.11127E+08
0.11145E+08
0.11299E+08
0.10993E+08
0.11051E+08
0.11219E+08
0.11044E+08
0.11275E+08
0.11105E+08
0.11167E+08
0.11289E+08
0.10990E+08
0.11108E+08
0.11170E+08
</weights>
</event>
<event>
      6  10001 -1.11453E+07  8.94427E-01 -1.00000E+00  4.41723E-01
      -4    -1     0     0     0   502  0.000000000E+00  0.000000000E+00  2.363059250E-02  2.363059250E-02  0.000000000E+00  0.00000E+00  9.000E+00
      21    -1     0     0   502   501  0.000000000E+00  0.000000000E+00 -4.860288264E+01  4.860288264E+01  0.000000000E+00  0.00000E+00  9.000E+00
      23     2     1     2     0     0 -3.319604617E-01  3.257941370E-01 -1.944325748E+01  1.948680632E+01  1.216149461E+00  0.00000E+00  9.000E+00
      11     1     3     3     0     0  1.036764412E-02 -4.457639943E-01 -5.515214144E+00  5.533208865E+00  5.110000000E-04  0.00000E+00  9.000E+00
     -11     1     3     3     0     0 -3.423281059E-01  7.715581312E-01 -1.392804334E+01  1.395359745E+01  5.110000000E-04  0.00000E+00  9.000E+00
      -4     1     1     2     0   501  3.319604617E-01 -3.257941370E-01 -2.913599457E+01  2.913970691E+01  0.000000000E+00  0.00000E+00  9.000E+00
#rwgt            1           3  -2474969.1261477675                3     2823780           0
<weights>
-.11145E+08
-.12590E+08
-.94811E+07
-.15302E+08
-.75968E+07
-.91702E+07
-.13910E+08
-.11211E+08
-.11080E+08
-.11000E+08
-.11067E+08
-.11021E+08
-.11163E+08
-.11057E+08
-.11070E+08
-.11183E+08
-.11099E+08
-.11213E+08
-.11201E+08
-.11195E+08
-.11212E+08
-.11206E+08
-.11227E+08
-.11131E+08
-.11258E+08
-.11228E+08
-.11078E+08
-.11189E+08
-.11142E+08
-.11161E+08
-.11212E+08
-.11102E+08
-.11210E+08
-.11158E+08
-.11131E+08
-.11262E+08
-.11039E+08
-.10875E+08
-.11427E+08
-.11083E+08
-.11203E+08
-.11134E+08
-.11158E+08
-.11246E+08
-.11040E+08
</weights>
</event>
<event>
      7  10001  1.11453E+07  1.30938E+00 -1.00000E+00  4.68401E-01
       2    -1     0     0   501     0  0.000000000E+00  0.000000000E+00  1.263602362E+00  1.263602362E+00  0.000000000E+00  0.00000E+00  9.000E+00
      21    -1     0     0   511   501  0.000000000E+00  0.000000000E+00 -2.127104121E+02  2.127104121E+02  0.000000000E+00  0.00000E+00  9.000E+00
      23     2     1     2     0     0  5.342416708E-01  2.651773464E-01  6.974724895E-01  1.395799088E+00  1.051691035E+00  0.00000E+00  9.000E+00
      11     1     3     3     0     0  6.200734441E-01 -2.321507945E-01  2.112177248E-01  6.949807593E-01  5.110000000E-04  0.00000E+00  9.000E+00
     -11     1     3     3     0     0 -8.583177324E-02  4.973281410E-01  4.862547647E-01  7.008183291E-01  5.110000000E-04  0.00000E+00  9.000E+00
       2     1     1     2   502     0 -2.830081383E-02  9.425060329E-01 -8.192169879E-01  1.249093684E+00  0.000000000E+00  0.00000E+00  9.000E+00
      21     1     1     2   511   502 -5.059408570E-01 -1.207683379E+00 -2.113250653E+02  2.113291217E+02  2.697398305E-06  0.00000E+00  9.000E+00
#rwgt            1          24   851182.70066153491                3     2825917           0
<weights>
0.11145E+08
0.15343E+08
0.71107E+07
0.11625E+08
0.97970E+07
0.13683E+08
0.69830E+07
0.11172E+08
0.11112E+08
0.10611E+08
0.10518E+08
0.10866E+08
0.10860E+08
0.10592E+08
0.10539E+08
0.11270E+08
0.11352E+08
0.11765E+08
0.11810E+08
0.11802E+08
0.11716E+08
0.11847E+08
0.11847E+08
0.11648E+08
0.11453E+08
0.11447E+08
0.11324E+08
0.11757E+08
0.11592E+08
0.11847E+08
0.11861E+08
0.11275E+08
0.11229E+08
0.11109E+08
0.11236E+08
0.11211E+08
0.11108E+08
0.11417E+08
0.10738E+08
0.11257E+08
0.11049E+08
0.11219E+08
0.11068E+08
0.11810E+08
0.10547E+08
</weights>
</event>
<event>
      7  10001  1.11453E+07  1.80841E+00 -1.00000E+00  3.73723E-01
      21    -1     0     0   502   511  0.000000000E+00  0.000000000E+00  2.334854292E+01  2.334854292E+01  0.000000000E+00  0.00000E+00  9.000E+00
      -4    -1     0     0     0   502  0.000000000E+00  0.000000000E+00 -7.256313636E+00  7.256313636E+00  0.000000000E+00  0.00000E+00  9.000E+00
      23     2     1     2     0     0  5.876471651E-01 -6.263155575E-01 -4.158012517E+00  4.710312004E+00  2.039698682E+00  0.00000E+00  9.000E+00
      11     1     3     3     0     0 -3.217340906E-01 -8.280407393E-01 -3.385680956E+00  3.500285716E+00  5.110000000E-04  0.00000E+00  9.000E+00
     -11     1     3     3     0     0  9.093812558E-01  2.017251819E-01 -7.723315605E-01  1.210026288E+00  5.110000000E-04  0.00000E+00  9.000E+00
      -4     1     1     2     0   501  4.729743914E-01  2.091044029E+00 -2.373646685E+00  3.198494723E+00  0.000000000E+00  0.00000E+00  9.000E+00
      21     1     1     2   501   511 -1.060621557E+00 -1.464728472E+00  2.262388849E+01  2.269604983E+01  3.371747881E-07  0.00000E+00  9.000E+00
#rwgt            1          12   376611.61497183598                3     2871564           0
<weights>
0.11145E+08
0.16170E+08
0.65764E+07
0.11988E+08
0.96863E+07
0.14075E+08
0.63802E+07
0.11244E+08
0.11039E+08
0.10572E+08
0.10533E+08
0.10820E+08
0.10906E+08
0.10572E+08
0.10548E+08
0.11258E+08
0.11365E+08
0.11761E+08
0.11792E+08
0.11794E+08
0.11712E+08
0.11816E+08
0.11867E+08
0.11480E+08
0.11600E+08
0.11628E+08
0.10967E+08
0.11779E+08
0.11492E+08
0.11789E+08
0.11834E+08
0.11236E+08
0.11259E+08
0.11112E+08
0.11224E+08
0.11333E+08
0.10986E+08
0.11180E+08
0.10887E+08
0.11232E+08
0.11073E+08
0.11185E+08
0.11105E+08
0.11812E+08
0.10540E+08
</weights>
</event>
<event>
      6  10001 -1.11453E+07  8.94427E-01 -1.00000E+00  2.28005E-01
       2    -1     0     0   501     0  0.000000000E+00  0.000000000E+00  1.725004036E-02  1.725004036E-02  0.000000000E+00  0.00000E+00  9.000E+00
      -2    -1     0     0     0   502  0.000000000E+00  0.000000000E+00 -7.436760694E+01  7.436760694E+01  0.000000000E+00  0.00000E+00  9.000E+00
      23     2     1     2     0     0 -1.002968303E-01  2.308700760E-01 -6.452059613E+01  6.455187385E+01  1.993422228E+00  0.00000E+00  9.000E+00
      11     1     3     3     0     0 -9.331098906E-01  4.240296222E-01 -2.345977996E+01  2.348215858E+01  5.110000000E-04  0.00000E+00  9.000E+00
     -11     1     3     3     0     0  8.328130603E-01 -1.931595461E-01 -4.106081617E+01  4.106971528E+01  5.110000000E-04  0.00000E+00  9.000E+00
      21     1     1     2   501   502  1.002968303E-01 -2.308700760E-01 -9.829760764E+00  9.832983124E+00  0.000000000E+00  0.00000E+00  9.000E+00
#rwgt            1          23  -283408.26068443357                3     2882426           0
<weights>
-.11145E+08
-.12578E+08
-.95598E+07
-.15287E+08
-.76598E+07
-.91702E+07
-.13910E+08
-.11198E+08
-.11093E+08
-.11099E+08
-.11154E+08
-.11074E+08
-.11141E+08
-.11155E+08
-.11157E+08
-.11070E+08
-.11197E+08
-.11168E+08
-.11049E+08
-.11023E+08
-.11185E+08
-.11116E+08
-.11110E+08
-.11156E+08
-.11115E+08
-.11170E+08
-.11102E+08
-.11124E+08
-.11013E+08
-.11092E+08
-.11119E+08
-.11107E+08
-.11174E+08
-.11276E+08
-.11016E+08
-.11055E+08
-.11220E+08
-.10982E+08
-.11342E+08
-.11092E+08
-.11181E+08
-.11260E+08
-.11022E+08
-.11139E+08
-.11138E+08
</weights>
</event>
<event>
      7  10001  1.11453E+07  1.90052E+00 -1.00000E+00  3.63705E-01
      21    -1     0     0   501   511  0.000000000E+00  0.000000000E+00  8.485266932E-01  8.485266932E-01  0.000000000E+00  0.00000E+00  9.000E+00
      21    -1     0     0   502   501  0.000000000E+00  0.000000000E+00 -6.152033277E+01  6.152033277E+01  0.000000000E+00  0.00000E+00  9.000E+00
      23     2     1     2     0     0  5.230688061E-01 -5.742694140E-01 -1.344657061E+01  1.365857327E+01  2.267813093E+00  0.00000E+00  9.000E+00
      11     1     3     3     0     0 -2.602121023E-01 -3.315302539E-01 -1.190506923E+01  1.191252686E+01  5.110000000E-04  0.00000E+00  9.000E+00
     -11     1     3     3     0     0  7.832809085E-01 -2.427391601E-01 -1.541501379E+00  1.746046404E+00  5.110000000E-04  0.00000E+00  9.000E+00
       2     1     1     2   502     0 -5.699400073E-01 -1.325670131E+00 -4.672199162E+01  4.674426953E+01  0.000000000E+00  0.00000E+00  9.000E+00
      -2     1     1     2     0   511  4.687120113E-02  1.899939545E+00 -5.032438557E-01  1.966016674E+00  0.000000000E+00  0.00000E+00  9.000E+00
#rwgt            1          24   1490803.9723961360                3     2883265           0
<weights>
0.11145E+08
0.11960E+08
0.10213E+08
0.12330E+08
0.97690E+07
0.10727E+08
0.11520E+08
0.11303E+08
0.10990E+08
0.10736E+08
0.10887E+08
0.10900E+08
0.11058E+08
0.10840E+08
0.10875E+08
0.11228E+08
0.11128E+08
0.11390E+08
0.11426E+08
0.11417E+08
0.11376E+08
0.11395E+08
0.11479E+08
0.11171E+08
0.11490E+08
0.11391E+08
0.11014E+08
0.11347E+08
0.11228E+08
0.11301E+08
0.11415E+08
0.11070E+08
0.11305E+08
0.11186E+08
0.11109E+08
0.11381E+08
0.10936E+08
0.10615E+08
0.11659E+08
0.11089E+08
0.11197E+08
0.11154E+08
0.11137E+08
0.11477E+08
0.10820E+08
</weights>
</event>
<event>
      7  10001 -1.11453E+07  1.59848E+00 -1.00000E+00  4.01319E-01
       4    -1     0     0   501     0  0.000000000E+00  0.000000000E+00  5.321367788E+00  5.321367788E+00  0.000000000E+00  0.00000E+00  9.000E+00
      21    -1     0     0   502   511  0.000000000E+00  0.000000000E+00 -1.405840864E+01  1.405840864E+01  0.000000000E+00  0.00000E+00  9.000E+00
      23     2     1     2     0     0 -7.274658440E-02 -1.257110682E+00  2.676098230E+00  3.164779807E+00  1.126370347E+00  0.00000E+00  9.000E+00
      11     1     3     3     0     0 -2.160654180E-01 -1.148322356E+00  1.189760657E+00  1.667590831E+00  5.110000000E-04  0.00000E+00  9.000E+00
     -11     1     3     3     0     0  1.433188336E-01 -1.087883255E-01  1.486337573E+00  1.497188976E+00  5.110000000E-04  0.00000E+00  9.000E+00
       4     1     1     2   502     0  7.057981448E-01 -2.106676892E-01  2.296887723E+00  2.412099730E+00  0.000000000E+00  0.00000E+00  9.000E+00
      21     1     1     2   501   511 -6.330515604E-01  1.467778371E+00 -1.371002681E+01  1.380289690E+01  1.685873940E-07  0.00000E+00  9.000E+00
#rwgt            1          28  -319161.87800332112                3     2934814           0
<weights>
-.11145E+08
-.64592E+07
-.14536E+08
-.18726E+08
-.58927E+07
-.24691E+07
-.24197E+08
-.11271E+08
-.11015E+08
-.11129E+08
-.11272E+08
-.11087E+08
-.11251E+08
-.11209E+08
-.11261E+08
-.11176E+08
-.10971E+08
-.11018E+08
-.10971E+08
-.10979E+08
-.11026E+08
-.10963E+08
-.11035E+08
-.10840E+08
-.11249E+08
-.11124E+08
-.10748E+08
-.10953E+08
-.10990E+08
-.10894E+08
-.10975E+08
-.11036E+08
-.11203E+08
-.11179E+08
-.11085E+08
-.11295E+08
-.10995E+08
-.10606E+08
-.11673E+08
-.11022E+08
-.11253E+08
-.11116E+08
-.11176E+08
-.11044E+08
-.11217E+08
</weights>
</event>
<event>
      6  10001  1.11453E+07  8.94427E-01 -1.00000E+00  5.73726E-01
      -4    -1     0     0     0   502  0.000000000E+00  0.000000000E+00  1.326272284E-01  1.326272284E-01  0.000000000E+00  0.00000E+00  9.000E+00
      21    -1     0     0   502   501  0.000000000E+00  0.000000000E+00 -1.428557977E+01  1.428557977E+01  0.000000000E+00  0.00000E+00  9.000E+00
      23     2     1     2     0     0 -2.058218610E-01  8.510078440E-01 -7.597795811E+00  7.804837452E+00  1.556409163E+00  0.00000E+00  9.000E+00
      11     1     3     3     0     0  6.445465109E-01  1.053784519E-01 -2.947359474E+00  3.018852920E+00  5.110000000E-04  0.00000E+00  9.000E+00
     -11     1     3     3     0     0 -8.503683719E-01  7.456293921E-01 -4.650436336E+00  4.785984531E+00  5.110000000E-04  0.00000E+00  9.000E+00
      -4     1     1     2     0   501  2.058218610E-01 -8.510078440E-01 -6.555156732E+00  6.613369548E+00  0.000000000E+00  0.00000E+00  9.000E+00
#rwgt            1           3   565653.36223553005                3     2965671           0
<weights>
0.11145E+08
0.14255E+08
0.81099E+07
0.11842E+08
0.97651E+07
0.12735E+08
0.84376E+07
0.11272E+08
0.11012E+08
0.10537E+08
0.10548E+08
0.10818E+08
0.10886E+08
0.10557E+08
0.10553E+08
0.11274E+08
0.11318E+08
0.11739E+08
0.11806E+08
0.11806E+08
0.11690E+08
0.11789E+08
0.11886E+08
0.11444E+08
0.11633E+08
0.11573E+08
0.11001E+08
0.11721E+08
0.11496E+08
0.11740E+08
0.11818E+08
0.11201E+08
0.11288E+08
0.11134E+08
0.11196E+08
0.11345E+08
0.10976E+08
0.11019E+08
0.11031E+08
0.11215E+08
0.11086E+08
0.11199E+08
0.11089E+08
0.11813E+08
0.10534E+08
</weights>
</event>
<event>
      7  10001 -1.11453E+07  1.16591E+00 -1.00000E+00  5.06556E-01
      21    -1     0     0   511   501  0.000000000E+00  0.000000000E+00  2.369935706E+01  2.369935706E+01  0.000000000E+00  0.00000E+00  9.000E+00
      -2    -1     0     0     0   502  0.000000000E+00  0.000000000E+00 -7.526080790E+00  7.526080790E+00  0.000000000E+00  0.00000E+00  9.000E+00
      23     2     1     2     0     0 -4.888285532E-01  4.008518001E-01 -5.098594937E+00  5.357666323E+00  1.519632381E+00  0.00000E+00  9.000E+00
      11     1     3     3     0     0 -5.701756844E-01 -3.138111434E-01 -9.779698012E-01  1.174735263E+00  5.110000000E-04  0.00000E+00  9.000E+00
     -11     1     3     3     0     0  8.134713118E-02  7.146629435E-01 -4.120625136E+00  4.182931060E+00  5.110000000E-04  0.00000E+00  9.000E+00
      -2     1     1     2     0   501 -3.917739461E-01  3.632753260E-01 -2.252260846E+00  2.314764503E+00  0.000000000E+00  0.00000E+00  9.000E+00
      21     1     1     2   511   502  8.806024993E-01 -7.641271261E-01  2.352413205E+01  2.355300703E+01  0.000000000E+00  0.00000E+00  9.000E+00
#rwgt            1          14  -364815.68919162394                3     2987100           0
<weights>
-.11145E+08
-.59216E+07
-.15037E+08
-.16671E+08
-.68247E+07
-.32390E+07
-.23015E+08
-.11441E+08
-.10853E+08
-.11050E+08
-.11182E+08
-.11007E+08
-.11292E+08
-.11127E+08
-.11174E+08
-.11307E+08
-.10848E+08
-.11073E+08
-.11147E+08
-.11166E+08
-.11062E+08
-.11074E+08
-.11143E+08
-.10936E+08
-.11327E+08
-.11022E+08
-.11188E+08
-.10994E+08
-.11210E+08
-.11005E+08
-.11112E+08
-.11155E+08
-.11119E+08
-.11118E+08
-.11152E+08
-.11713E+08
-.10567E+08
-.10753E+08
-.11562E+08
-.11056E+08
-.11234E+08
-.11035E+08
-.11263E+08
-.11150E+08
-.11122E+08
</weights>
</event>
<event>
      6  10001 -1.11453E+07  8.94427E-01 -1.00000E+00  5.41592E-01
      21    -1     0     0   502   501  0.000000000E+00  0.000000000E+00  1.102965919E-02  1.102965919E-02  0.000000000E+00  0.00000E+00  9.000E+00
      -1    -1     0     0     0   502  0.000000000E+00  0.000000000E+00 -1.877998255E+02  1.877998255E+02  0.000000000E+00  0.00000E+00  9.000E+00
      23     2     1     2     0     0 -4.878228506E-01 -9.133692777E-02 -1.732990825E+02  1.733126447E+02  2.110570307E+00  0.00000E+00  9.000E+00
      11     1     3     3     0     0 -1.564716891E-01  1.003916109E+00 -7.420140952E+01  7.420836547E+01  5.110000000E-04  0.00000E+00  9.000E+00
     -11     1     3     3     0     0 -3.313511615E-01 -1.095253037E+00 -9.909767298E+01  9.910427923E+01  5.110000000E-04  0.00000E+00  9.000E+00
      -1     1     1     2     0   501  4.878228506E-01  9.133692777E-02 -1.448971338E+01  1.449821049E+01  0.000000000E+00  0.00000E+00  9.000E+00
#rwgt            1          15  -770996.13372456189                3     2997009           0
<weights>
-.11145E+08
-.12825E+08
-.90631E+07
-.15587E+08
-.72618E+07
-.91702E+07
-.13910E+08
-.11078E+08
-.11206E+08
-.11265E+08
-.11267E+08
-.11129E+08
-.11186E+08
-.11266E+08
-.11269E+08
-.11030E+08
-.11215E+08
-.11097E+08
-.10932E+08
-.10905E+08
-.11118E+08
-.11009E+08
-.11019E+08
-.11118E+08
-.11028E+08
-.11043E+08
-.11159E+08
-.11018E+08
-.10975E+08
-.11028E+08
-.11033E+08
-.11231E+08
-.11015E+08
-.11341E+08
-.10953E+08
-.11169E+08
-.11099E+08
-.11287E+08
-.10999E+08
-.11143E+08
-.11127E+08
-.11344E+08
-.10932E+08
-.11004E+08
-.11274E+08
</weights>
</event>
<event>
      6  10001 -1.11453E+07  8.94427E-01 -1.00000E+00  5.91304E-01
      -1    -1     0     0     0   502  0.000000000E+00  0.000000000E+00  1.545984964E-02  1.545984964E-02  0.000000000E+00  0.00000E+00  9.000E+00
       1    -1     0     0   501     0  0.000000000E+00  0.000000000E+00 -3.723918874E+02  3.723918874E+02  0.000000000E+00  0.00000E+00  9.000E+00
      23     2     1     2     0     0  4.375928780E-01  1.798453904E-02 -2.783381959E+02  2.783680958E+02  4.056306547E+00  0.00000E+00  9.000E+00
      11     1     3     3     0     0 -1.513742691E+00  3.238661254E-01 -5.678575669E+01  5.680685231E+01  5.110000000E-04  0.00000E+00  9.000E+00
     -11     1     3     3     0     0  1.951335569E+00 -3.058815864E-01 -2.215524393E+02  2.215612435E+02  5.110000000E-04  0.00000E+00  9.000E+00
      21     1     1     2   501   502 -4.375928780E-01 -1.798453904E-02 -9.403823157E+01  9.403925142E+01  0.000000000E+00  0.00000E+00  9.000E+00
#rwgt            1          10  -494838.71229767008                3     2998297           0
<weights>
-.11145E+08
-.11983E+08
-.10116E+08
-.14564E+08
-.81056E+07
-.91702E+07
-.13910E+08
-.11273E+08
-.11025E+08
-.11116E+08
-.11298E+08
-.11774E+08
-.10489E+08
-.11177E+08
-.11191E+08
-.10199E+08
-.12286E+08
-.10163E+08
-.12335E+08
-.12542E+08
-.10026E+08
-.11193E+08
-.10995E+08
-.11564E+08
-.10643E+08
-.10480E+08
-.11535E+08
-.12115E+08
-.99236E+07
-.11290E+08
-.10979E+08
-.11014E+08
-.11267E+08
-.10154E+08
-.12264E+08
-.11172E+08
-.11116E+08
-.11164E+08
-.11139E+08
-.11332E+08
-.10972E+08
-.11180E+08
-.11107E+08
-.11097E+08
-.11193E+08
</weights>
</event>
<event>
      6  10001  1.11453E+07  8.94427E-01 -1.00000E+00  5.94339E-01
       2    -1     0     0   501     0  0.000000000E+00  0.000000000E+00  2.509211999E-01  2.509211999E-01  0.000000000E+00  0.00000E+00  9.000E+00
      -2    -1     0     0     0   502  0.000000000E+00  0.000000000E+00 -4.201603188E+00  4.201603188E+00  0.000000000E+00  0.00000E+00  9.000E+00
      23     2     1     2     0     0  2.013755206E-01  7.156461477E-01 -2.757319843E+00  3.046531956E+00  1.061057366E+00  0.00000E+00  9.000E+00
      11     1     3     3     0     0  2.996388091E-01  4.261009324E-01 -3.681399478E-01  6.378657404E-01  5.110000000E-04  0.00000E+00  9.000E+00
     -11     1     3     3     0     0 -9.826328854E-02  2.895452153E-01 -2.389179895E+00  2.408666216E+00  5.110000000E-04  0.00000E+00  9.000E+00
      21     1     1     2   501   502 -2.013755206E-01 -7.156461477E-01 -1.193362145E+00  1.405992432E+00  2.107342426E-08  0.00000E+00  9.000E+00
#rwgt            1          23   231873.82532779436                3     3001943           0
<weights>
0.11145E+08
0.13350E+08
0.91771E+07
0.11521E+08
0.10038E+08
0.12150E+08
0.93352E+07
0.11027E+08
0.11260E+08
0.10802E+08
0.10756E+08
0.10977E+08
0.10927E+08
0.10804E+08
0.10772E+08
0.11139E+08
0.11376E+08
0.11549E+08
0.11496E+08
0.11476E+08
0.11531E+08
0.11565E+08
0.11567E+08
0.11450E+08
0.11319E+08
0.11460E+08
0.11026E+08
0.11554E+08
0.11288E+08
0.11556E+08
0.11556E+08
0.11139E+08
0.11279E+08
0.11167E+08
0.11158E+08
0.10908E+08
0.11413E+08
0.11173E+08
0.11003E+08
0.11181E+08
0.11108E+08
0.11254E+08
0.11030E+08
0.11550E+08
0.10776E+08
</weights>
</event>
<event>
      7  10001  1.11453E+07  2.09046E+00 -1.00000E+00  3.45942E-01
       2    -1     0     0   501     0  0.000000000E+00  0.000000000E+00  1.680189305E+02  1.680189305E+02  0.000000000E+00  0.00000E+00  9.000E+00
      21    -1     0     0   502   501  0.000000000E+00  0.000000000E+00 -2.720657593E-02  2.720657593E-02  0.000000000E+00  0.00000E+00  9.000E+00
      23     2     1     2     0     0 -3.406460496E-01  2.487594009E-02  6.105652268E+01  6.109320628E+01  2.089074876E+00  0.00000E+00  9.000E+00
      11     1     3     3     0     0  6.571885674E-01  6.496488432E-02  7.976703012E+00  8.003993281E+00  5.110000000E-04  0.00000E+00  9.000E+00
     -11     1     3     3     0     0 -9.978346170E-01 -4.008894423E-02  5.307981967E+01  5.308921300E+01  5.110000000E-04  0.00000E+00  9.000E+00
       2     1     1     2   511     0  8.779414510E-01  1.511736991E-01  2.514650985E+01  2.516228512E+01  0.000000000E+00  0.00000E+00  9.000E+00
      21     1     1     2   502   511 -5.372954014E-01 -1.760496392E-01  8.178869140E+01  8.179064568E+01  1.348699152E-06  0.00000E+00  9.000E+00
#rwgt            1          24   385658.78192975360                3     3004305           0
<weights>
0.11145E+08
0.14186E+08
0.80102E+07
0.12335E+08
0.95224E+07
0.12444E+08
0.88838E+07
0.11110E+08
0.11193E+08
0.10741E+08
0.10686E+08
0.10934E+08
0.10930E+08
0.10741E+08
0.10702E+08
0.11233E+08
0.11285E+08
0.11577E+08
0.11678E+08
0.11650E+08
0.11547E+08
0.11652E+08
0.11652E+08
0.11646E+08
0.11319E+08
0.11305E+08
0.11805E+08
0.11562E+08
0.11490E+08
0.11644E+08
0.11663E+08
0.11223E+08
0.11223E+08
0.11129E+08
0.11202E+08
0.11158E+08
0.11161E+08
0.11293E+08
0.10923E+08
0.11206E+08
0.11092E+08
0.11210E+08
0.11078E+08
0.11633E+08
0.10703E+08
</weights>
</event>
<event>
      7  10001  1.11453E+07  8.94427E-01 -1.00000E+00  6.07649E-01
      21    -1     0     0   502   501  0.000000000E+00  0.000000000E+00  6.571138229E-01  6.571138229E-01  0.000000000E+00  0.00000E+00  9.000E+00
       4    -1     0     0   501     0  0.000000000E+00  0.000000000E+00 -2.352580829E+00  2.352580829E+00  0.000000000E+00  0.00000E+00  9.000E+00
      23     2     1     2     0     0  1.840029048E-01  3.978665232E-01 -1.967367785E+00  2.386308935E+00  1.277411248E+00  0.00000E+00  9.000E+00
      11     1     3     3     0     0 -3.178699439E-01  6.356791321E-01 -1.502287104E+00  1.661925409E+00  5.110000000E-04  0.00000E+00  9.000E+00
     -11     1     3     3     0     0  5.018728487E-01 -2.378126089E-01 -4.650806808E-01  7.243835269E-01  5.110000000E-04  0.00000E+00  9.000E+00
       4     1     1     2   512     0 -1.112557834E-01 -2.323321654E-01 -4.213053400E-02  2.610192834E-01  0.000000000E+00  0.00000E+00  9.000E+00
      21     1     1     2   502   512 -7.274712141E-02 -1.655343578E-01  3.140313120E-01  3.623664336E-01  1.290478414E-08  0.00000E+00  9.000E+00
#rwgt            2         195   13487280.521156069                3     3057715           0
<weights>
0.11145E+08
0.12074E+08
0.99081E+07
0.14675E+08
0.79389E+07
0.91702E+07
0.13910E+08
0.11208E+08
0.11079E+08
0.10818E+08
0.10816E+08
0.10948E+08
0.11024E+08
0.10838E+08
0.10826E+08
0.11228E+08
0.11210E+08
0.11471E+08
0.11474E+08
0.11472E+08
0.11445E+08
0.11497E+08
0.11521E+08
0.11324E+08
0.11381E+08
0.11351E+08
0.11091E+08
0.11450E+08
0.11340E+08
0.11470E+08
0.11509E+08
0.11180E+08
0.11218E+08
0.11133E+08
0.11180E+08
0.11254E+08
0.11053E+08
0.11094E+08
0.11105E+08
0.11163E+08
0.11132E+08
0.11173E+08
0.11117E+08
0.11505E+08
0.10813E+08
</weights>
</event>
<event>
      7  10001  1.11453E+07  3.59325E+00 -1.00000E+00  2.71408E-01
       2    -1     0     0   501     0  0.000000000E+00  0.000000000E+00  1.365097021E+01  1.365097021E+01  0.000000000E+00  0.00000E+00  9.000E+00
      21    -1     0     0   511   501  0.000000000E+00  0.000000000E+00 -6.311815807E+01  6.311815807E+01  0.000000000E+00  0.00000E+00  9.000E+00
      23     2     1     2     0     0 -5.683544055E-01 -1.372450713E+00  1.201365842E+01  1.215813926E+01  1.133893214E+00  0.00000E+00  9.000E+00
      11     1     3     3     0     0 -4.298183002E-01 -6.468713824E-01  2.548857771E+00  2.664556728E+00  5.110000000E-04  0.00000E+00  9.000E+00
     -11     1     3     3     0     0 -1.385361053E-01 -7.255793303E-01  9.464800651E+00  9.493582529E+00  5.110000000E-04  0.00000E+00  9.000E+00
       2     1     1     2   502     0  4.138060974E+00  9.618313044E-01 -1.474236732E+00  4.496892485E+00  0.000000000E+00  0.00000E+00  9.000E+00
      21     1     1     2   511   502 -3.569706568E+00  4.106194083E-01 -6.000660955E+01  6.011409654E+01  6.743495762E-07  0.00000E+00  9.000E+00
#rwgt            1          24   1416061.4484290341                3     3057738           0
<weights>
0.11145E+08
0.11937E+08
0.10245E+08
0.12298E+08
0.97671E+07
0.10720E+08
0.11530E+08
0.11205E+08
0.11081E+08
0.10778E+08
0.10768E+08
0.10933E+08
0.10993E+08
0.10798E+08
0.10779E+08
0.11243E+08
0.11218E+08
0.11517E+08
0.11528E+08
0.11523E+08
0.11487E+08
0.11551E+08
0.11575E+08
0.11376E+08
0.11392E+08
0.11348E+08
0.11143E+08
0.11487E+08
0.11387E+08
0.11525E+08
0.11565E+08
0.11193E+08
0.11222E+08
0.11131E+08
0.11187E+08
0.11245E+08
0.11064E+08
0.11123E+08
0.11062E+08
0.11173E+08
0.11122E+08
0.11185E+08
0.11104E+08
0.11556E+08
0.10768E+08
</weights>
</event>
<event>
      7  10001  1.11453E+07  9.18923E+00 -1.00000E+00  1.99534E-01
       2    -1     0     0   501     0  0.000000000E+00  0.000000000E+00  6.762031408E+00  6.762031408E+00  0.000000000E+00  0.00000E+00  9.000E+00
      21    -1     0     0   502   511  0.000000000E+00  0.000000000E+00 -1.200047278E+02  1.200047278E+02  0.000000000E+00  0.00000E+00  9.000E+00
      23     2     1     2     0     0 -2.396194333E-01 -1.982846601E+00  3.343467810E+00  4.741596327E+00  2.704599899E+00  0.00000E+00  9.000E+00
      11     1     3     3     0     0  9.627530921E-01  4.040808694E-02  1.341753544E+00  1.651916815E+00  5.110000000E-04  0.00000E+00  9.000E+00
     -11     1     3     3     0     0 -1.202372525E+00 -2.023254688E+00  2.001714266E+00  3.089679512E+00  5.110000000E-04  0.00000E+00  9.000E+00
       2     1     1     2   502     0 -7.890232423E+00  6.266238859E+00 -7.520239977E+00  1.257280901E+01  0.000000000E+00  0.00000E+00  9.000E+00
      21     1     1     2   501   511  8.129851856E+00 -4.283392258E+00 -1.090659242E+02  1.094523539E+02  0.000000000E+00  0.00000E+00  9.000E+00
#rwgt            1          24   3460359.6600400568                3     3115159           0
<weights>
0.11145E+08
0.11460E+08
0.10764E+08
0.12260E+08
0.98387E+07
0.10357E+08
0.12088E+08
0.11215E+08
0.11072E+08
0.10836E+08
0.10852E+08
0.10957E+08
0.11040E+08
0.10863E+08
0.10859E+08
0.11226E+08
0.11187E+08
0.11433E+08
0.11443E+08
0.11441E+08
0.11410E+08
0.11452E+08
0.11491E+08
0.11284E+08
0.11379E+08
0.11332E+08
0.11078E+08
0.11404E+08
0.11313E+08
0.11419E+08
0.11466E+08
0.11164E+08
0.11222E+08
0.11138E+08
0.11170E+08
0.11260E+08
0.11046E+08
0.11028E+08
0.11163E+08
0.11149E+08
0.11143E+08
0.11170E+08
0.11120E+08
0.11471E+08
0.10843E+08
</weights>
</event>
<event>
      7  10001  1.11453E+07  1.71225E+00 -1.00000E+00  3.85462E-01
      -2    -1     0     0     0   501  0.000000000E+00  0.000000000E+00  2.505488617E+02  2.505488617E+02  0.000000000E+00  0.00000E+00  9.000E+00
       4    -1     0     0   501     0  0.000000000E+00  0.000000000E+00 -1.020468478E+00  1.020468478E+00  0.000000000E+00  0.00000E+00  9.000E+00
      23     2     1     2     0     0  6.705156037E-01 -2.285452228E+00  9.736709313E+01  9.747693307E+01  3.965951715E+00  0.00000E+00  9.000E+00
      11     1     3     3     0     0  2.314370364E+00 -1.523254259E+00  5.214970543E+01  5.222325526E+01  5.110000000E-04  0.00000E+00  9.000E+00
     -11     1     3     3     0     0 -1.643854760E+00 -7.621979684E-01  4.521738770E+01  4.525367780E+01  5.110000000E-04  0.00000E+00  9.000E+00
       4     1     1     2   502     0 -7.224916568E-01  3.996912622E+00  3.332759060E+00  5.254006819E+00  0.000000000E+00  0.00000E+00  9.000E+00
      -2     1     1     2     0   502  5.197605313E-02 -1.711460395E+00  1.488285410E+02  1.488383903E+02  0.000000000E+00  0.00000E+00  9.000E+00
#rwgt            2         117   145813.14453114290                3     3136362           0
<weights>
0.11145E+08
0.10366E+08
0.11901E+08
0.12599E+08
0.95355E+07
0.91702E+07
0.13910E+08
0.11201E+08
0.11086E+08
0.10814E+08
0.10806E+08
0.10950E+08
0.11014E+08
0.10833E+08
0.10817E+08
0.11231E+08
0.11212E+08
0.11480E+08
0.11486E+08
0.11483E+08
0.11453E+08
0.11510E+08
0.11529E+08
0.11350E+08
0.11369E+08
0.11334E+08
0.11135E+08
0.11456E+08
0.11358E+08
0.11486E+08
0.11522E+08
0.11186E+08
0.11216E+08
0.11133E+08
0.11183E+08
0.11241E+08
0.11067E+08
0.11124E+08
0.11084E+08
0.11168E+08
0.11127E+08
0.11178E+08
0.11112E+08
0.11515E+08
0.10805E+08
</weights>
</event>
<event>
      7  10001  1.11453E+07  3.10944E+00 -1.00000E+00  2.87861E-01
      21    -1     0     0   502   511  0.000000000E+00  0.000000000E+00  7.886113799E+02  7.886113799E+02  0.000000000E+00  0.00000E+00  9.000E+00
       4    -1     0     0   501     0  0.000000000E+00  0.000000000E+00 -5.835964519E-01  5.835964519E-01  0.000000000E+00  0.00000E+00  9.000E+00
      23     2     1     2     0     0 -3.704914928E-01 -4.892510762E-02  5.928442112E+00  6.103398358E+00  1.401922974E+00  0.00000E+00  9.000E+00
      11     1     3     3     0     0 -5.822859665E-02  1.967881036E-01  5.552823019E+00  5.556614066E+00  5.110000000E-04  0.00000E+00  9.000E+00
     -11     1     3     3     0     0 -3.122628961E-01 -2.457132112E-01  3.756190930E-01  5.467842926E-01  5.110000000E-04  0.00000E+00  9.000E+00
       4     1     1     2   502     0  3.479853261E+00  2.641517914E-02  5.647941683E+00  6.633952196E+00  0.000000000E+00  0.00000E+00  9.000E+00
      21     1     1     2   501   511 -3.109361768E+00  2.250992848E-02  7.764513997E+02  7.764576258E+02  0.000000000E+00  0.00000E+00  9.000E+00
#rwgt            1          19   327564.87600337213                3     3136841           0
<weights>
0.11145E+08
0.13068E+08
0.93056E+07
0.12145E+08
0.97240E+07
0.11617E+08
0.10153E+08
0.11188E+08
0.11099E+08
0.10760E+08
0.10726E+08
0.10928E+08
0.10970E+08
0.10769E+08
0.10740E+08
0.11243E+08
0.11250E+08
0.11559E+08
0.11574E+08
0.11568E+08
0.11527E+08
0.11605E+08
0.11612E+08
0.11444E+08
0.11383E+08
0.11357E+08
0.11212E+08
0.11539E+08
0.11427E+08
0.11589E+08
0.11617E+08
0.11213E+08
0.11218E+08
0.11126E+08
0.11198E+08
0.11227E+08
0.11084E+08
0.11221E+08
0.10987E+08
0.11193E+08
0.11105E+08
0.11191E+08
0.11098E+08
0.11596E+08
0.10734E+08
</weights>
</event>
<event>
      6  10001  1.11453E+07  8.94427E-01 -1.00000E+00  6.01588E-01
      21    -1     0     0   502   501  0.000000000E+00  0.000000000E+00  5.796758676E+00  5.796758676E+00  0.000000000E+00  0.00000E+00  9.000E+00
       4    -1     0     0   501     0  0.000000000E+00  0.000000000E+00 -3.450993337E-01  3.450993337E-01  0.000000000E+00  0.00000E+00  9.000E+00
      23     2     1     2     0     0 -3.022642611E-01  1.116446528E+00  2.444439742E+00  2.919873178E+00  1.101161746E+00  0.00000E+00  9.000E+00
      11     1     3     3     0     0 -1.182559067E-01  7.954819016E-01  2.418825218E+00  2.549017774E+00  5.110000000E-04  0.00000E+00  9.000E+00
     -11     1     3     3     0     0 -1.840083544E-01  3.209646260E-01  2.561452392E-02  3.708554039E-01  5.110000000E-04  0.00000E+00  9.000E+00
       4     1     1     2   502     0  3.022642611E-01 -1.116446528E+00  3.007219600E+00  3.221984831E+00  0.000000000E+00  0.00000E+00  9.000E+00
#rwgt            1          19   373053.85110090364                3     3140654           0
<weights>
0.11145E+08
0.14013E+08
0.85758E+07
0.11424E+08
0.10101E+08
0.12755E+08
0.84075E+07
0.11179E+08
0.11107E+08
0.10726E+08
0.10676E+08
0.10914E+08
0.10944E+08
0.10729E+08
0.10692E+08
0.11249E+08
0.11274E+08
0.11608E+08
0.11629E+08
0.11621E+08
0.11572E+08
0.11664E+08
0.11664E+08
0.11502E+08
0.11392E+08
0.11373E+08
0.11262E+08
0.11591E+08
0.11468E+08
0.11653E+08
0.11675E+08
0.11230E+08
0.11220E+08
0.11121E+08
0.11208E+08
0.11218E+08
0.11095E+08
0.11281E+08
0.10926E+08
0.11208E+08
0.11092E+08
0.11198E+08
0.11090E+08
0.11646E+08
0.10690E+08
</weights>
</event>
<event>
      6  10001 -1.11453E+07  8.94427E-01 -1.00000E+00  5.60270E-01
       2    -1     0     0   501     0  0.000000000E+00  0.000000000E+00  3.852507889E+02  3.852507889E+02  0.000000000E+00  0.00000E+00  9.000E+00
      21    -1     0     0   502   501  0.000000000E+00  0.000000000E+00 -2.404812492E-02  2.404812492E-02  0.000000000E+00  0.00000E+00  9.000E+00
      23     2     1     2     0     0 -2.781223482E-01  1.167100709E+00  3.404617780E+02  3.404937990E+02  4.512802785E+00  0.00000E+00  9.000E+00
      11     1     3     3     0     0  3.206522753E-01  2.465737416E-01  2.690552414E+00  2.720788313E+00  5.110000000E-04  0.00000E+00  9.000E+00
     -11     1     3     3     0     0 -5.987746235E-01  9.205269672E-01  3.377712256E+02  3.377730107E+02  5.110000000E-04  0.00000E+00  9.000E+00
       2     1     1     2   502     0  2.781223482E-01 -1.167100709E+00  4.476496281E+01  4.478103808E+01  0.000000000E+00  0.00000E+00  9.000E+00
#rwgt            1          24  -43501306.987748168                3     3146457           0
<weights>
-.11145E+08
-.12235E+08
-.98221E+07
-.14884E+08
-.78704E+07
-.91616E+07
-.13909E+08
-.11171E+08
-.11121E+08
-.10823E+08
-.10813E+08
-.10962E+08
-.11006E+08
-.10840E+08
-.10823E+08
-.11226E+08
-.11211E+08
-.11463E+08
-.11505E+08
-.11493E+08
-.11439E+08
-.11502E+08
-.11521E+08
-.11413E+08
-.11328E+08
-.11287E+08
-.11355E+08
-.11435E+08
-.11372E+08
-.11480E+08
-.11515E+08
-.11184E+08
-.11217E+08
-.11138E+08
-.11178E+08
-.11208E+08
-.11102E+08
-.11133E+08
-.11083E+08
-.11167E+08
-.11127E+08
-.11185E+08
-.11104E+08
-.11506E+08
-.10813E+08
</weights>
</event>
<event>
      6  10001 -1.11453E+07  8.94427E-01 -1.00000E+00  6.02511E-01
      -5    -1     0     0     0   502  0.000000000E+00  0.000000000E+00  2.071692245E+00  2.071692245E+00  0.000000000E+00  0.00000E+00  9.000E+00
      21    -1     0     0   502   501  0.000000000E+00  0.000000000E+00 -5.209315098E-01  5.209315098E-01  0.000000000E+00  0.00000E+00  9.000E+00
      23     2     1     2     0     0 -3.733186196E-01 -4.848856084E-01  1.416178522E+00  1.966051159E+00  1.218734881E+00  0.00000E+00  9.000E+00
      11     1     3     3     0     0 -2.737695093E-01 -6.056424911E-01  1.595284881E+00  1.728203311E+00  5.110000000E-04  0.00000E+00  9.000E+00
     -11     1     3     3     0     0 -9.954911026E-02  1.207568827E-01 -1.791063592E-01  2.378478486E-01  5.110000000E-04  0.00000E+00  9.000E+00
      -5     1     1     2     0   501  3.733186196E-01  4.848856084E-01  1.345822134E-01  6.265725953E-01  0.000000000E+00  0.00000E+00  9.000E+00
#rwgt            1           1  -160902.72983703529                3     3147104           0
<weights>
-.11164E+08
-.86267E+07
-.12328E+08
-.16340E+08
-.73210E+07
-.57366E+07
-.18835E+08
-.11228E+08
-.11098E+08
-.11070E+08
-.11134E+08
-.11073E+08
-.11190E+08
-.11120E+08
-.11136E+08
-.11210E+08
-.11077E+08
-.11188E+08
-.11159E+08
-.11158E+08
-.11186E+08
-.11169E+08
-.11197E+08
-.11092E+08
-.11252E+08
-.11182E+08
-.11043E+08
-.11140E+08
-.11148E+08
-.11128E+08
-.11177E+08
-.11121E+08
-.11209E+08
-.11173E+08
-.11148E+08
-.11256E+08
-.11076E+08
-.10889E+08
-.11412E+08
-.11095E+08
-.11224E+08
-.11160E+08
-.11168E+08
-.11209E+08
-.11110E+08
</weights>
</event>
<event>
      6  10001 -1.11453E+07  8.94427E-01 -1.00000E+00  1.77135E-01
      21    -1     0     0   502   501  0.000000000E+00  0.000000000E+00  1.332438299E-02  1.332438299E-02  0.000000000E+00  0.00000E+00  9.000E+00
      -2    -1     0     0     0   502  0.000000000E+00  0.000000000E+00 -4.179354292E+01  4.179354292E+01  0.000000000E+00  0.00000E+00  9.000E+00
      23     2     1     2     0     0  2.642985501E-01  1.616654963E-01 -2.867571707E+01  2.869870388E+01  1.105832639E+00  0.00000E+00  9.000E+00
      11     1     3     3     0     0  3.959496318E-01  4.181924101E-01 -7.891127355E+00  7.912114268E+00  5.110000000E-04  0.00000E+00  9.000E+00
     -11     1     3     3     0     0 -1.316510817E-01 -2.565269138E-01 -2.078458971E+01  2.078658962E+01  5.110000000E-04  0.00000E+00  9.000E+00
      -2     1     1     2     0   501 -2.642985501E-01 -1.616654963E-01 -1.310450147E+01  1.310816341E+01  0.000000000E+00  0.00000E+00  9.000E+00
#rwgt            1          14  -2321911.6811043285                3     3149583           0
<weights>
-.11145E+08
-.12629E+08
-.95226E+07
-.15348E+08
-.76300E+07
-.91702E+07
-.13910E+08
-.11224E+08
-.11067E+08
-.10990E+08
-.11056E+08
-.11037E+08
-.11088E+08
-.11046E+08
-.11056E+08
-.11097E+08
-.11221E+08
-.11253E+08
-.11186E+08
-.11162E+08
-.11261E+08
-.11219E+08
-.11246E+08
-.11191E+08
-.11222E+08
-.11270E+08
-.11062E+08
-.11221E+08
-.11074E+08
-.11181E+08
-.11224E+08
-.11084E+08
-.11232E+08
-.11249E+08
-.11046E+08
-.11057E+08
-.11230E+08
-.10902E+08
-.11392E+08
-.11101E+08
-.11176E+08
-.11240E+08
-.11044E+08
-.11255E+08
-.11033E+08
</weights>
</event>
<event>
      6  10001 -1.11453E+07  8.94427E-01 -1.00000E+00  6.02410E-01
      21    -1     0     0   502   501  0.000000000E+00  0.000000000E+00  1.319252212E+00  1.319252212E+00  0.000000000E+00  0.00000E+00  9.000E+00
      -5    -1     0     0     0   502  0.000000000E+00  0.000000000E+00 -9.023164253E-01  9.023164253E-01  0.000000000E+00  0.00000E+00  9.000E+00
      23     2     1     2     0     0 -2.516776866E-01 -1.682270504E-01 -3.505396166E-01  1.396547127E+00  1.317506681E+00  0.00000E+00  9.000E+00
      11     1     3     3     0     0 -3.363399212E-01 -3.566804259E-02 -8.276958546E-01  8.941350237E-01  5.110000000E-04  0.00000E+00  9.000E+00
     -11     1     3     3     0     0  8.466223452E-02 -1.325590078E-01  4.771562380E-01  5.024121029E-01  5.110000000E-04  0.00000E+00  9.000E+00
      -5     1     1     2     0   501  2.516776866E-01  1.682270504E-01  7.674754034E-01  8.250215108E-01  0.000000000E+00  0.00000E+00  9.000E+00
#rwgt            1          11  -211235.67664959235                3     3154960           0
<weights>
-.11145E+08
-.87710E+07
-.12555E+08
-.15303E+08
-.77945E+07
-.63987E+07
-.18164E+08
-.11202E+08
-.11086E+08
-.10907E+08
-.10933E+08
-.10994E+08
-.11074E+08
-.10938E+08
-.10938E+08
-.11213E+08
-.11152E+08
-.11349E+08
-.11358E+08
-.11354E+08
-.11334E+08
-.11362E+08
-.11394E+08
-.11247E+08
-.11314E+08
-.11258E+08
-.11127E+08
-.11315E+08
-.11268E+08
-.11329E+08
-.11374E+08
-.11148E+08
-.11210E+08
-.11145E+08
-.11157E+08
-.11236E+08
-.11067E+08
-.11006E+08
-.11220E+08
-.11131E+08
-.11159E+08
-.11165E+08
-.11125E+08
-.11384E+08
-.10921E+08
</weights>
</event>
<event>
      7  10001  1.11453E+07  9.04399E+00 -1.00000E+00  2.00360E-01
      21    -1     0     0   502   501  0.000000000E+00  0.000000000E+00  1.120432329E+01  1.120432329E+01  0.000000000E+00  0.00000E+00  9.000E+00
       2    -1     0     0   501     0  0.000000000E+00  0.000000000E+00 -2.088112105E+00  2.088112105E+00  0.000000000E+00  0.00000E+00  9.000E+00
      23     2     1     2     0     0 -3.252223102E-01  8.021701328E-01 -1.079547344E+00  2.490588681E+00  2.070836313E+00  0.00000E+00  9.000E+00
      11     1     3     3     0     0 -1.012979078E+00 -3.552814439E-02 -8.093767157E-02  1.016828417E+00  5.110000000E-04  0.00000E+00  9.000E+00
     -11     1     3     3     0     0  6.877567680E-01  8.376982772E-01 -9.986096726E-01  1.473760264E+00  5.110000000E-04  0.00000E+00  9.000E+00
       2     1     1     2   511     0 -1.079311190E-02 -7.391483576E-02 -2.828711233E-01  2.925678838E-01  0.000000000E+00  0.00000E+00  9.000E+00
      21     1     1     2   502   511  3.360154221E-01 -7.282552971E-01  1.047862965E+01  1.050927883E+01  1.685873940E-07  0.00000E+00  9.000E+00
#rwgt            2         189   1650884.0668872739                3     3157818           0
<weights>
0.11145E+08
0.10972E+08
0.11130E+08
0.13335E+08
0.89181E+07
0.91702E+07
0.13910E+08
0.11107E+08
0.11184E+08
0.10859E+08
0.10848E+08
0.10995E+08
0.10998E+08
0.10875E+08
0.10859E+08
0.11169E+08
0.11274E+08
0.11423E+08
0.11455E+08
0.11449E+08
0.11403E+08
0.11463E+08
0.11472E+08
0.11341E+08
0.11322E+08
0.11336E+08
0.11093E+08
0.11454E+08
0.11259E+08
0.11446E+08
0.11460E+08
0.11160E+08
0.11228E+08
0.11130E+08
0.11190E+08
0.11099E+08
0.11214E+08
0.11103E+08
0.11109E+08
0.11150E+08
0.11139E+08
0.11203E+08
0.11085E+08
0.11464E+08
0.10852E+08
</weights>
</event>
<event>
      6  10001 -1.11453E+07  8.94427E-01 -1.00000E+00  3.88419E-01
      21    -1     0     0   502   501  0.000000000E+00  0.000000000E+00  1.283777762E-02  1.283777762E-02  0.000000000E+00  0.00000E+00  9.000E+00
       2    -1     0     0   501     0  0.000000000E+00  0.000000000E+00 -3.311690904E+02  3.311690904E+02  0.000000000E+00  0.00000E+00  9.000E+00
      23     2     1     2     0     0 -6.861557462E-01  8.360738232E-01 -1.819294747E+02  1.819512307E+02  2.597450484E+00  0.00000E+00  9.000E+00
      11     1     3     3     0     0  6.283542505E-01 -3.843956110E-01 -9.709869439E+01  9.710148836E+01  5.110000000E-04  0.00000E+00  9.000E+00
     -11     1     3     3     0     0 -1.314509997E+00  1.220469434E+00 -8.483078030E+01  8.484974230E+01  5.110000000E-04  0.00000E+00  9.000E+00
       2     1     1     2   502     0  6.861557462E-01 -8.360738232E-01 -1.492267779E+02  1.492306975E+02  0.000000000E+00  0.00000E+00  9.000E+00
#rwgt            1          17  -8948424.3247533198                3     3158848           0
<weights>
-.11145E+08
-.12645E+08
-.93435E+07
-.15368E+08
-.74865E+07
-.91702E+07
-.13910E+08
-.11127E+08
-.11162E+08
-.11169E+08
-.11159E+08
-.11037E+08
-.11272E+08
-.11162E+08
-.11160E+08
-.11333E+08
-.10862E+08
-.11368E+08
-.10801E+08
-.10757E+08
-.11392E+08
-.11105E+08
-.11161E+08
-.11111E+08
-.11133E+08
-.11233E+08
-.11084E+08
-.10878E+08
-.11407E+08
-.11084E+08
-.11167E+08
-.11026E+08
-.11260E+08
-.11377E+08
-.10851E+08
-.11120E+08
-.11167E+08
-.11163E+08
-.11130E+08
-.11211E+08
-.11085E+08
-.11147E+08
-.11143E+08
-.11125E+08
-.11165E+08
</weights>
</event>
<event>
      7  10001  1.11453E+07  3.06888E+00 -1.00000E+00  2.89459E-01
       1    -1     0     0   501     0  0.000000000E+00  0.000000000E+00  3.463381657E+01  3.463381657E+01  0.000000000E+00  0.00000E+00  9.000E+00
      21    -1     0     0   502   501  0.000000000E+00  0.000000000E+00 -1.791485028E-01  1.791485028E-01  0.000000000E+00  0.00000E+00  9.000E+00
      23     2     1     2     0     0 -1.346940604E+00 -4.058165616E-01  1.288580668E+01  1.301309879E+01  1.147950405E+00  0.00000E+00  9.000E+00
      11     1     3     3     0     0 -1.461526106E+00 -4.827845229E-01  1.262065392E+01  1.271416710E+01  5.110000000E-04  0.00000E+00  9.000E+00
     -11     1     3     3     0     0  1.145855026E-01  7.696796125E-02  2.651527610E-01  2.989316849E-01  5.110000000E-04  0.00000E+00  9.000E+00
       1     1     1     2   511     0  7.053797434E-01 -7.579849408E-01  1.725293341E+01  1.728397561E+01  0.000000000E+00  0.00000E+00  9.000E+00
      21     1     1     2   502   511  6.415608604E-01  1.163801502E+00  4.315927975E+00  4.515890672E+00  1.032382731E-07  0.00000E+00  9.000E+00
#rwgt            2         218   1489118.7453673095                3     3162929           0
<weights>
0.11145E+08
0.11281E+08
0.10748E+08
0.13711E+08
0.86121E+07
0.91702E+07
0.13910E+08
0.11183E+08
0.11106E+08
0.10829E+08
0.10822E+08
0.10963E+08
0.11013E+08
0.10848E+08
0.10832E+08
0.11227E+08
0.11204E+08
0.11456E+08
0.11486E+08
0.11477E+08
0.11432E+08
0.11491E+08
0.11511E+08
0.11380E+08
0.11335E+08
0.11290E+08
0.11265E+08
0.11427E+08
0.11361E+08
0.11467E+08
0.11503E+08
0.11181E+08
0.11216E+08
0.11138E+08
0.11176E+08
0.11217E+08
0.11091E+08
0.11120E+08
0.11096E+08
0.11164E+08
0.11130E+08
0.11183E+08
0.11106E+08
0.11497E+08
0.10821E+08
</weights>
</event>
<event>
      6  10001 -1.11453E+07  8.94427E-01 -1.00000E+00  4.32612E-01
      21    -1     0     0   502   501  0.000000000E+00  0.000000000E+00  3.751797057E-03  3.751797057E-03  0.000000000E+00  0.00000E+00  9.000E+00
      -2    -1     0     0     0   502  0.000000000E+00  0.000000000E+00 -5.846589309E+02  5.846589309E+02  0.000000000E+00  0.00000E+00  9.000E+00
      23     2     1     2     0     0 -7.691019999E-01 -3.277186658E-01 -4.325127177E+02  4.325179244E+02  1.950649192E+00  0.00000E+00  9.000E+00
      11     1     3     3     0     0 -1.105607257E+00 -7.439754072E-01 -3.829075336E+02  3.829098525E+02  5.110000000E-04  0.00000E+00  9.000E+00
     -11     1     3     3     0     0  3.365052567E-01  4.162567414E-01 -4.960518411E+01  4.960807188E+01  5.110000000E-04  0.00000E+00  9.000E+00
      -2     1     1     2     0   501  7.691019999E-01  3.277186658E-01 -1.521424614E+02  1.521447583E+02  0.000000000E+00  0.00000E+00  9.000E+00
#rwgt            1          14  -1958932.9424306734                3     3164434           0
<weights>
-.11145E+08
-.11878E+08
-.10233E+08
-.14436E+08
-.81992E+07
-.91702E+07
-.13910E+08
-.10825E+08
-.11457E+08
-.11480E+08
-.11369E+08
-.11147E+08
-.11325E+08
-.11321E+08
-.11376E+08
-.11038E+08
-.11218E+08
-.11002E+08
-.10941E+08
-.10930E+08
-.11016E+08
-.10899E+08
-.11025E+08
-.11045E+08
-.11038E+08
-.10916E+08
-.11229E+08
-.10921E+08
-.11004E+08
-.10979E+08
-.10970E+08
-.11449E+08
-.10774E+08
-.11343E+08
-.10958E+08
-.11567E+08
-.10767E+08
-.11743E+08
-.10563E+08
-.11190E+08
-.11085E+08
-.11352E+08
-.10923E+08
-.10879E+08
-.11422E+08
</weights>
</event>
<event>
      6  10001 -1.11453E+07  8.94427E-01 -1.00000E+00  2.50677E-01
      21    -1     0     0   502   501  0.000000000E+00  0.000000000E+00  2.229099885E-02  2.229099885E-02  0.000000000E+00  0.00000E+00  9.000E+00
       3    -1     0     0   501     0  0.000000000E+00  0.000000000E+00 -4.416167573E+02  4.416167573E+02  0.000000000E+00  0.00000E+00  9.000E+00
      23     2     1     2     0     0 -1.275640253E+00  6.864124469E-01 -4.074475004E+02  4.074613699E+02  3.033803382E+00  0.00000E+00  9.000E+00
      11     1     3     3     0     0 -1.254168264E+00 -1.043602316E+00 -1.998372374E+02  1.998438978E+02  5.110000000E-04  0.00000E+00  9.000E+00
     -11     1     3     3     0     0 -2.147198810E-02  1.730014763E+00 -2.076102631E+02  2.076174721E+02  5.110000000E-04  0.00000E+00  9.000E+00
       3     1     1     2   502     0  1.275640253E+00 -6.864124469E-01 -3.414696585E+01  3.417767835E+01  0.000000000E+00  0.00000E+00  9.000E+00
#rwgt            1          18  -159962.96966180351                3     3167105           0
<weights>
-.11145E+08
-.11801E+08
-.10280E+08
-.14343E+08
-.82370E+07
-.91702E+07
-.13910E+08
-.10823E+08
-.11466E+08
-.11840E+08
-.11552E+08
-.11574E+08
-.11236E+08
-.11582E+08
-.11556E+08
-.12843E+08
-.91849E+07
-.11492E+08
-.98796E+07
-.92078E+07
-.12300E+08
-.10712E+08
-.10736E+08
-.92449E+07
-.13607E+08
-.15844E+08
-.91020E+07
-.10063E+08
-.11795E+08
-.10803E+08
-.10756E+08
-.11433E+08
-.10719E+08
-.11074E+08
-.11240E+08
-.10869E+08
-.11393E+08
-.12059E+08
-.10256E+08
-.11023E+08
-.11251E+08
-.11159E+08
-.11131E+08
-.10614E+08
-.11682E+08
</weights>
</event>
<event>
      7  10001  1.11453E+07  1.12777E+01 -1.00000E+00  1.89490E-01
       4    -1     0     0   501     0  0.000000000E+00  0.000000000E+00  2.260607436E+01  2.260607436E+01  0.000000000E+00  0.00000E+00  9.000E+00
      21    -1     0     0   502   501  0.000000000E+00  0.000000000E+00 -1.546889391E+00  1.546889391E+00  0.000000000E+00  0.00000E+00  9.000E+00
      23     2     1     2     0     0 -6.908824168E-01  2.874424732E-01  1.582808108E+01  1.598345086E+01  2.093468235E+00  0.00000E+00  9.000E+00
      11     1     3     3     0     0  2.265748789E-02  1.092585157E+00  9.732367874E+00  9.793530537E+00  5.110000000E-04  0.00000E+00  9.000E+00
     -11     1     3     3     0     0 -7.135399047E-01 -8.051426838E-01  6.095713201E+00  6.189920325E+00  5.110000000E-04  0.00000E+00  9.000E+00
       4     1     1     2   511     0 -8.754831586E-02  1.583988240E-03  6.582670147E+00  6.583252500E+00  0.000000000E+00  0.00000E+00  9.000E+00
      21     1     1     2   502   511  7.784307326E-01 -2.890264614E-01 -1.351566251E+00  1.586260392E+00  9.165122697E-07  0.00000E+00  9.000E+00
#rwgt            2         308   3931255.9648809317                3     3167382           0
<weights>
0.11145E+08
0.11200E+08
0.10772E+08
0.13612E+08
0.86313E+07
0.91702E+07
0.13910E+08
0.11199E+08
0.11088E+08
0.10857E+08
0.10865E+08
0.10972E+08
0.11039E+08
0.10882E+08
0.10873E+08
0.11223E+08
0.11182E+08
0.11418E+08
0.11429E+08
0.11424E+08
0.11397E+08
0.11441E+08
0.11466E+08
0.11308E+08
0.11339E+08
0.11289E+08
0.11149E+08
0.11387E+08
0.11320E+08
0.11413E+08
0.11453E+08
0.11169E+08
0.11213E+08
0.11140E+08
0.11170E+08
0.11234E+08
0.11072E+08
0.11070E+08
0.11147E+08
0.11151E+08
0.11142E+08
0.11174E+08
0.11116E+08
0.11454E+08
0.10859E+08
</weights>
</event>
<event>
      6  10001 -1.11453E+07  8.94427E-01 -1.00000E+00  2.63150E-01
      21    -1     0     0   502   501  0.000000000E+00  0.000000000E+00  2.198862133E-02  2.198862133E-02  0.000000000E+00  0.00000E+00  9.000E+00
      -2    -1     0     0     0   502  0.000000000E+00  0.000000000E+00 -2.901181920E+02  2.901181920E+02  0.000000000E+00  0.00000E+00  9.000E+00
      23     2     1     2     0     0  1.997216115E-01  2.425790227E-01 -2.889053041E+02  2.889085255E+02  1.327637542E+00  0.00000E+00  9.000E+00
      11     1     3     3     0     0 -4.507284350E-01 -2.045182719E-01 -6.750847694E+01  6.751029138E+01  5.110000000E-04  0.00000E+00  9.000E+00
     -11     1     3     3     0     0  6.504500466E-01  4.470972945E-01 -2.213968272E+02  2.213982341E+02  5.110000000E-04  0.00000E+00  9.000E+00
      -2     1     1     2     0   501 -1.997216115E-01 -2.425790227E-01 -1.190899225E+00  1.231655093E+00  0.000000000E+00  0.00000E+00  9.000E+00
#rwgt            1          14  -9660422.2622308675                3     3167462           0
<weights>
-.11145E+08
-.11637E+08
-.10476E+08
-.14143E+08
-.83942E+07
-.91702E+07
-.13910E+08
-.10978E+08
-.11304E+08
-.11397E+08
-.11330E+08
-.11148E+08
-.11278E+08
-.11333E+08
-.11344E+08
-.11029E+08
-.11203E+08
-.11025E+08
-.10895E+08
-.10876E+08
-.11044E+08
-.10934E+08
-.10968E+08
-.11097E+08
-.10970E+08
-.10961E+08
-.11201E+08
-.10961E+08
-.10970E+08
-.10986E+08
-.10969E+08
-.11307E+08
-.10917E+08
-.11316E+08
-.10980E+08
-.11265E+08
-.11016E+08
-.11485E+08
-.10790E+08
-.11140E+08
-.11133E+08
-.11318E+08
-.10959E+08
-.10915E+08
-.11368E+08
</weights>
</event>
<event>
      7  10001  1.11453E+07  4.55175E+00 -1.00000E+00  2.48346E-01
       4    -1     0     0   501     0  0.000000000E+00  0.000000000E+00  3.109125660E+00  3.109125660E+00  0.000000000E+00  0.00000E+00  9.000E+00
      21    -1     0     0   502   501  0.000000000E+00  0.000000000E+00 -1.428525774E+01  1.428525774E+01  0.000000000E+00  0.00000E+00  9.000E+00
      23     2     1     2     0     0  2.169384979E+00  8.576899370E-01  1.275844346E+00  2.901721228E+00  1.162043060E+00  0.00000E+00  9.000E+00
      11     1     3     3     0     0  4.310194053E-01 -1.532937340E-01  6.514788224E-01  7.960537757E-01  5.110000000E-04  0.00000E+00  9.000E+00
     -11     1     3     3     0     0  1.738365574E+00  1.010983671E+00  6.243655236E-01  2.105667452E+00  5.110000000E-04  0.00000E+00  9.000E+00
       4     1     1     2   511     0 -4.396722379E+00  2.720397836E-01 -1.027535771E+01  1.117980990E+01  0.000000000E+00  0.00000E+00  9.000E+00
      21     1     1     2   502   511  2.227337400E+00 -1.129729721E+00 -2.176618710E+00  3.312852267E+00  4.267043192E-07  0.00000E+00  9.000E+00
#rwgt            1          28   835186.56340663705                3     3169460           0
<weights>
0.11145E+08
0.11825E+08
0.10308E+08
0.12673E+08
0.94178E+07
0.10346E+08
0.12105E+08
0.11225E+08
0.11062E+08
0.10829E+08
0.10860E+08
0.10952E+08
0.11043E+08
0.10861E+08
0.10865E+08
0.11226E+08
0.11180E+08
0.11425E+08
0.11442E+08
0.11438E+08
0.11403E+08
0.11440E+08
0.11492E+08
0.11261E+08
0.11399E+08
0.11344E+08
0.11058E+08
0.11393E+08
0.11299E+08
0.11400E+08
0.11456E+08
0.11151E+08
0.11231E+08
0.11142E+08
0.11164E+08
0.11275E+08
0.11032E+08
0.10976E+08
0.11211E+08
0.11142E+08
0.11149E+08
0.11169E+08
0.11121E+08
0.11468E+08
0.10844E+08
</weights>
</event>
<event>
      7  10001  1.11453E+07  8.94427E-01 -1.00000E+00  6.07649E-01
       4    -1     0     0   501     0  0.000000000E+00  0.000000000E+00  6.484055342E+00  6.484055342E+00  0.000000000E+00  0.00000E+00  9.000E+00
      21    -1     0     0   502   501  0.000000000E+00  0.000000000E+00 -1.915613600E-01  1.915613600E-01  0.000000000E+00  0.00000E+00  9.000E+00
      23     2     1     2     0     0 -1.281019625E-01  3.047634314E-01  5.555604459E+00  5.711782756E+00  1.284690815E+00  0.00000E+00  9.000E+00
      11     1     3     3     0     0 -4.406539509E-01  8.221980870E-02  6.407955137E-01  7.820199185E-01  5.110000000E-04  0.00000E+00  9.000E+00
     -11     1     3     3     0     0  3.125519883E-01  2.225436227E-01  4.914808945E+00  4.929762838E+00  5.110000000E-04  0.00000E+00  9.000E+00
       4     1     1     2   512     0  5.959248346E-02 -3.136514350E-01  8.055034250E-01  8.664665339E-01  0.000000000E+00  0.00000E+00  9.000E+00
      21     1     1     2   502   512  6.850947908E-02  8.888003614E-03 -6.861390185E-02  9.736741169E-02  1.020212765E-08  0.00000E+00  9.000E+00
#rwgt            2         308   12978225.643071335                3     3263560           0
<weights>
0.11145E+08
0.12173E+08
0.97768E+07
0.14795E+08
0.78337E+07
0.91702E+07
0.13910E+08
0.11183E+08
0.11106E+08
0.10829E+08
0.10823E+08
0.10963E+08
0.11014E+08
0.10849E+08
0.10833E+08
0.11227E+08
0.11203E+08
0.11455E+08
0.11484E+08
0.11475E+08
0.11432E+08
0.11490E+08
0.11510E+08
0.11378E+08
0.11335E+08
0.11290E+08
0.11261E+08
0.11426E+08
0.11360E+08
0.11466E+08
0.11502E+08
0.11181E+08
0.11216E+08
0.11138E+08
0.11176E+08
0.11218E+08
0.11091E+08
0.11119E+08
0.11098E+08
0.11163E+08
0.11130E+08
0.11182E+08
0.11107E+08
0.11496E+08
0.10822E+08
</weights>
</event>
<event>
      6  10001 -1.11453E+07  8.94427E-01 -1.00000E+00  5.71481E-01
       2    -1     0     0   501     0  0.000000000E+00  0.000000000E+00  4.017085580E+01  4.017085580E+01  0.000000000E+00  0.00000E+00  9.000E+00
      21    -1     0     0   502   501  0.000000000E+00  0.000000000E+00 -2.122911561E-02  2.122911561E-02  0.000000000E+00  0.00000E+00  9.000E+00
      23     2     1     2     0     0 -8.590619139E-02 -3.309377468E-01  3.755364571E+01  3.757368523E+01  1.178395684E+00  0.00000E+00  9.000E+00
      11     1     3     3     0     0  2.221346872E-01  3.773124531E-02  1.499036123E+00  1.515875004E+00  5.110000000E-04  0.00000E+00  9.000E+00
     -11     1     3     3     0     0 -3.080408786E-01 -3.686689921E-01  3.605460959E+01  3.605781023E+01  5.110000000E-04  0.00000E+00  9.000E+00
       2     1     1     2   502     0  8.590619139E-02  3.309377468E-01  2.595980974E+00  2.618399680E+00  0.000000000E+00  0.00000E+00  9.000E+00
#rwgt            1          24  -12846935.244833870                3     3263792           0
<weights>
-.11145E+08
-.12824E+08
-.92992E+07
-.15596E+08
-.74514E+07
-.91642E+07
-.13909E+08
-.11173E+08
-.11118E+08
-.10844E+08
-.10839E+08
-.10970E+08
-.11021E+08
-.10865E+08
-.10849E+08
-.11223E+08
-.11198E+08
-.11438E+08
-.11471E+08
-.11460E+08
-.11416E+08
-.11472E+08
-.11489E+08
-.11385E+08
-.11317E+08
-.11275E+08
-.11324E+08
-.11409E+08
-.11352E+08
-.11449E+08
-.11484E+08
-.11178E+08
-.11213E+08
-.11138E+08
-.11175E+08
-.11209E+08
-.11099E+08
-.11118E+08
-.11106E+08
-.11159E+08
-.11134E+08
-.11181E+08
-.11107E+08
-.11478E+08
-.10838E+08
</weights>
</event>
<event>
      7  10001  1.11453E+07  3.07856E+00 -1.00000E+00  2.89074E-01
      21    -1     0     0   511   502  0.000000000E+00  0.000000000E+00  1.497004452E+00  1.497004452E+00  0.000000000E+00  0.00000E+00  9.000E+00
       2    -1     0     0   501     0  0.000000000E+00  0.000000000E+00 -2.105403167E+02  2.105403167E+02  0.000000000E+00  0.00000E+00  9.000E+00
      23     2     1     2     0     0  8.504243718E-01 -2.066346924E+00 -1.952456632E+02  1.952706721E+02  2.184802483E+00  0.00000E+00  9.000E+00
      11     1     3     3     0     0  7.342014454E-01 -8.159232649E-01 -2.974585763E+01  2.976610201E+01  5.110000000E-04  0.00000E+00  9.000E+00
     -11     1     3     3     0     0  1.162229265E-01 -1.250423659E+00 -1.654998056E+02  1.655045701E+02  5.110000000E-04  0.00000E+00  9.000E+00
      21     1     1     2   501   502  3.137631077E-01  4.916294789E+00 -3.564987890E+00  6.080916082E+00  2.308477966E-06  0.00000E+00  9.000E+00
       2     1     1     2   511     0 -1.164187479E+00 -2.849947865E+00 -1.023266116E+01  1.068573300E+01  0.000000000E+00  0.00000E+00  9.000E+00
#rwgt            2         190   7098825.6356598241                3     3266700           0
<weights>
0.11148E+08
0.10141E+08
0.12170E+08
0.12367E+08
0.97532E+07
0.91411E+07
0.13910E+08
0.11131E+08
0.11163E+08
0.11175E+08
0.11171E+08
0.11098E+08
0.11212E+08
0.11173E+08
0.11171E+08
0.11310E+08
0.10890E+08
0.11245E+08
0.10946E+08
0.10925E+08
0.11256E+08
0.11105E+08
0.11142E+08
0.11177E+08
0.11064E+08
0.11139E+08
0.11141E+08
0.11022E+08
0.11220E+08
0.11103E+08
0.11141E+08
0.11062E+08
0.11224E+08
0.11242E+08
0.11018E+08
0.11139E+08
0.11151E+08
0.11173E+08
0.11122E+08
0.11167E+08
0.11127E+08
0.11167E+08
0.11127E+08
0.11119E+08
0.11174E+08
</weights>
</event>
<event>
      6  10001 -1.11453E+07  8.94427E-01 -1.00000E+00  2.74364E-01
      21    -1     0     0   502   501  0.000000000E+00  0.000000000E+00  1.457389179E-02  1.457389179E-02  0.000000000E+00  0.00000E+00  9.000E+00
       2    -1     0     0   501     0  0.000000000E+00  0.000000000E+00 -3.480130809E+02  3.480130809E+02  0.000000000E+00  0.00000E+00  9.000E+00
      23     2     1     2     0     0 -5.960390260E-01  4.637099495E-01 -3.359347198E+02  3.359402543E+02  1.774312846E+00  0.00000E+00  9.000E+00
      11     1     3     3     0     0 -1.568855872E-01  5.693681206E-01 -3.355381266E+01  3.355900978E+01  5.110000000E-04  0.00000E+00  9.000E+00
     -11     1     3     3     0     0 -4.391534388E-01 -1.056581711E-01 -3.023809072E+02  3.023812445E+02  5.110000000E-04  0.00000E+00  9.000E+00
       2     1     1     2   502     0  5.960390260E-01 -4.637099495E-01 -1.206378719E+01  1.208740050E+01  0.000000000E+00  0.00000E+00  9.000E+00
#rwgt            1          17  -29491186.240916222                3     3267388           0
<weights>
-.11145E+08
-.11741E+08
-.10391E+08
-.14270E+08
-.83261E+07
-.91702E+07
-.13910E+08
-.11128E+08
-.11162E+08
-.11168E+08
-.11158E+08
-.11029E+08
-.11281E+08
-.11161E+08
-.11159E+08
-.11330E+08
-.10867E+08
-.11385E+08
-.10781E+08
-.10734E+08
-.11411E+08
-.11105E+08
-.11163E+08
-.11101E+08
-.11144E+08
-.11249E+08
-.11075E+08
-.10858E+08
-.11434E+08
-.11081E+08
-.11170E+08
-.11024E+08
-.11262E+08
-.11398E+08
-.10826E+08
-.11117E+08
-.11170E+08
-.11161E+08
-.11133E+08
-.11218E+08
-.11079E+08
-.11145E+08
-.11145E+08
-.11127E+08
-.11164E+08
</weights>
</event>
<event>
      6  10001 -1.11453E+07  8.94427E-01 -1.00000E+00  6.01095E-01
      21    -1     0     0   502   501  0.000000000E+00  0.000000000E+00  5.000419466E-01  5.000419466E-01  0.000000000E+00  0.00000E+00  9.000E+00
       2    -1     0     0   501     0  0.000000000E+00  0.000000000E+00 -1.927204563E+01  1.927204563E+01  0.000000000E+00  0.00000E+00  9.000E+00
      23     2     1     2     0     0  2.698452458E-01  1.089560429E-01 -1.855772729E+01  1.941069824E+01  5.683421188E+00  0.00000E+00  9.000E+00
      11     1     3     3     0     0 -6.731293285E-01 -2.638334415E+00 -1.042971367E+01  1.077927822E+01  5.110000000E-04  0.00000E+00  9.000E+00
     -11     1     3     3     0     0  9.429745743E-01  2.747290458E+00 -8.128013621E+00  8.631420022E+00  5.110000000E-04  0.00000E+00  9.000E+00
       2     1     1     2   502     0 -2.698452458E-01 -1.089560429E-01 -2.142763985E-01  3.613893342E-01  0.000000000E+00  0.00000E+00  9.000E+00
#rwgt            1          17  -1478836.1266541691                3     3267854           0
<weights>
-.11145E+08
-.71068E+07
-.15173E+08
-.12775E+08
-.95219E+07
-.64026E+07
-.18158E+08
-.11211E+08
-.11081E+08
-.11034E+08
-.11088E+08
-.11056E+08
-.11148E+08
-.11078E+08
-.11090E+08
-.11190E+08
-.11080E+08
-.11182E+08
-.11204E+08
-.11204E+08
-.11177E+08
-.11188E+08
-.11210E+08
-.11159E+08
-.11203E+08
-.11175E+08
-.11112E+08
-.11195E+08
-.11113E+08
-.11158E+08
-.11194E+08
-.11119E+08
-.11187E+08
-.11136E+08
-.11156E+08
-.11258E+08
-.11037E+08
-.10945E+08
-.11349E+08
-.11090E+08
-.11194E+08
-.11147E+08
-.11143E+08
-.11220E+08
-.11066E+08
</weights>
</event>
<event>
      6  10001 -1.11453E+07  8.94427E-01 -1.00000E+00  3.09373E-01
      21    -1     0     0   502   501  0.000000000E+00  0.000000000E+00  4.943809779E-04  4.943809779E-04  0.000000000E+00  0.00000E+00  9.000E+00
      -2    -1     0     0     0   502  0.000000000E+00  0.000000000E+00 -1.284791628E+03  1.284791628E+03  0.000000000E+00  0.00000E+00  9.000E+00
      23     2     1     2     0     0 -2.700008299E-01 -3.770903162E-02 -1.178634504E+03  1.178635143E+03  1.196357486E+00  0.00000E+00  9.000E+00
      11     1     3     3     0     0 -2.659374650E-01  5.600449960E-01 -5.275749836E+02  5.275753479E+02  5.110000000E-04  0.00000E+00  9.000E+00
     -11     1     3     3     0     0 -4.063364866E-03 -5.977540276E-01 -6.510595202E+02  6.510597946E+02  5.110000000E-04  0.00000E+00  9.000E+00
      -2     1     1     2     0   501  2.700008299E-01  3.770903162E-02 -1.061566296E+02  1.061569797E+02  0.000000000E+00  0.00000E+00  9.000E+00
#rwgt            1          14  -67626.455143600004                3     3282333           0
<weights>
-.11145E+08
-.10225E+08
-.12239E+08
-.12427E+08
-.98065E+07
-.91702E+07
-.13910E+08
-.10580E+08
-.11717E+08
-.11797E+08
-.11476E+08
-.11172E+08
-.11520E+08
-.11367E+08
-.11509E+08
-.11036E+08
-.11290E+08
-.10867E+08
-.10981E+08
-.10984E+08
-.10877E+08
-.10760E+08
-.11042E+08
-.11001E+08
-.11009E+08
-.10810E+08
-.11288E+08
-.10826E+08
-.11006E+08
-.10921E+08
-.10874E+08
-.11659E+08
-.10546E+08
-.11292E+08
-.11025E+08
-.11808E+08
-.10610E+08
-.12362E+08
-.10146E+08
-.11190E+08
-.11088E+08
-.11323E+08
-.10956E+08
-.10723E+08
-.11616E+08
</weights>
</event>
<event>
      6  10001 -1.11453E+07  8.94427E-01 -1.00000E+00  5.60038E-01
      21    -1     0     0   502   501  0.000000000E+00  0.000000000E+00  1.321679995E+02  1.321679995E+02  0.000000000E+00  0.00000E+00  9.000E+00
      -2    -1     0     0     0   502  0.000000000E+00  0.000000000E+00 -9.569315574E-03  9.569315574E-03  0.000000000E+00  0.00000E+00  9.000E+00
      23     2     1     2     0     0  6.236371318E-01 -5.440483032E-03  9.141691635E+01  9.143128184E+01  1.495911387E+00  0.00000E+00  9.000E+00
      11     1     3     3     0     0  5.929882763E-01  6.268844627E-01  6.910110132E+01  6.910648901E+01  5.110000000E-04  0.00000E+00  9.000E+00
     -11     1     3     3     0     0  3.064885549E-02 -6.323249458E-01  2.231581504E+01  2.232479284E+01  5.110000000E-04  0.00000E+00  9.000E+00
      -2     1     1     2     0   501 -6.236371318E-01  5.440483032E-03  4.074151385E+01  4.074628699E+01  0.000000000E+00  0.00000E+00  9.000E+00
#rwgt            1          14  -218291.92002002717                3     3282618           0
<weights>
-.11145E+08
-.12367E+08
-.96315E+07
-.15039E+08
-.77175E+07
-.91652E+07
-.13909E+08
-.11152E+08
-.11146E+08
-.10817E+08
-.10803E+08
-.10961E+08
-.10999E+08
-.10833E+08
-.10814E+08
-.11224E+08
-.11221E+08
-.11473E+08
-.11513E+08
-.11500E+08
-.11449E+08
-.11514E+08
-.11530E+08
-.11426E+08
-.11326E+08
-.11293E+08
-.11352E+08
-.11448E+08
-.11377E+08
-.11494E+08
-.11525E+08
-.11185E+08
-.11219E+08
-.11137E+08
-.11180E+08
-.11194E+08
-.11117E+08
-.11146E+08
-.11070E+08
-.11169E+08
-.11125E+08
-.11188E+08
-.11100E+08
-.11516E+08
-.10805E+08
</weights>
</event>
<event>
      6  10001 -1.11453E+07  8.94427E-01 -1.00000E+00  4.69613E-01
      21    -1     0     0   502   501  0.000000000E+00  0.000000000E+00  1.074633488E-02  1.074633488E-02  0.000000000E+00  0.00000E+00  9.000E+00
       2    -1     0     0   501     0  0.000000000E+00  0.000000000E+00 -2.412851403E+02  2.412851403E+02  0.000000000E+00  0.00000E+00  9.000E+00
      23     2     1     2     0     0 -1.947725997E-01 -3.116492968E-01 -2.345044152E+02  2.345159402E+02  2.295731182E+00  0.00000E+00  9.000E+00
      11     1     3     3     0     0  9.243760421E-01 -1.669689225E-01 -5.534240927E+01  5.535038043E+01  5.110000000E-04  0.00000E+00  9.000E+00
     -11     1     3     3     0     0 -1.119148642E+00 -1.446803743E-01 -1.791620060E+02  1.791655598E+02  5.110000000E-04  0.00000E+00  9.000E+00
       2     1     1     2   502     0  1.947725997E-01  3.116492968E-01 -6.769978719E+00  6.779946424E+00  0.000000000E+00  0.00000E+00  9.000E+00
#rwgt            1          17  -15778696.912929183                3     3283639           0
<weights>
-.11145E+08
-.11624E+08
-.10528E+08
-.14128E+08
-.84354E+07
-.91702E+07
-.13910E+08
-.11128E+08
-.11162E+08
-.11172E+08
-.11166E+08
-.11080E+08
-.11228E+08
-.11168E+08
-.11167E+08
-.11322E+08
-.10871E+08
-.11279E+08
-.10902E+08
-.10874E+08
-.11293E+08
-.11103E+08
-.11146E+08
-.11158E+08
-.11080E+08
-.11162E+08
-.11125E+08
-.10980E+08
-.11271E+08
-.11096E+08
-.11147E+08
-.11048E+08
-.11235E+08
-.11277E+08
-.10970E+08
-.11133E+08
-.11153E+08
-.11171E+08
-.11120E+08
-.11178E+08
-.11113E+08
-.11159E+08
-.11130E+08
-.11119E+08
-.11170E+08
</weights>
</event>
<event>
      6  10001 -1.11453E+07  8.94427E-01 -1.00000E+00  1.65867E-01
      21    -1     0     0   502   501  0.000000000E+00  0.000000000E+00  5.071337171E-03  5.071337171E-03  0.000000000E+00  0.00000E+00  9.000E+00
       2    -1     0     0   501     0  0.000000000E+00  0.000000000E+00 -1.322418501E+02  1.322418501E+02  0.000000000E+00  0.00000E+00  9.000E+00
      23     2     1     2     0     0  2.129050847E-01  2.040237262E-01 -1.225675723E+02  1.225732196E+02  1.139043984E+00  0.00000E+00  9.000E+00
      11     1     3     3     0     0 -7.592374399E-02 -2.404819884E-01 -7.176270106E+00  7.180699750E+00  5.110000000E-04  0.00000E+00  9.000E+00
     -11     1     3     3     0     0  2.888288287E-01  4.445057146E-01 -1.153913022E+02  1.153925198E+02  5.110000000E-04  0.00000E+00  9.000E+00
       2     1     1     2   502     0 -2.129050847E-01 -2.040237262E-01 -9.669206445E+00  9.673701852E+00  0.000000000E+00  0.00000E+00  9.000E+00
#rwgt            1          17  -8355155.2346972292                3     3284725           0
<weights>
-.11145E+08
-.12020E+08
-.10138E+08
-.14609E+08
-.81234E+07
-.91702E+07
-.13910E+08
-.11140E+08
-.11149E+08
-.11165E+08
-.11172E+08
-.11143E+08
-.11150E+08
-.11173E+08
-.11172E+08
-.11234E+08
-.10982E+08
-.11134E+08
-.11079E+08
-.11077E+08
-.11134E+08
-.11108E+08
-.11118E+08
-.11216E+08
-.11022E+08
-.11078E+08
-.11172E+08
-.11143E+08
-.11057E+08
-.11117E+08
-.11116E+08
-.11103E+08
-.11176E+08
-.11137E+08
-.11147E+08
-.11139E+08
-.11146E+08
-.11153E+08
-.11142E+08
-.11122E+08
-.11161E+08
-.11183E+08
-.11105E+08
-.11115E+08
-.11171E+08
</weights>
</event>
<event>
      6  10001 -1.11453E+07  8.94427E-01 -1.00000E+00  6.29580E-01
       2    -1     0     0   501     0  0.000000000E+00  0.000000000E+00  1.012994289E+02  1.012994289E+02  0.000000000E+00  0.00000E+00  9.000E+00
      -2    -1     0     0     0   502  0.000000000E+00  0.000000000E+00 -1.529666170E-02  1.529666170E-02  0.000000000E+00  0.00000E+00  9.000E+00
      23     2     1     2     0     0  7.254256641E-02 -5.530863403E-01  6.699210370E+01  6.701816031E+01  1.783447786E+00  0.00000E+00  9.000E+00
      11     1     3     3     0     0 -2.324791053E-01 -8.244598690E-01  6.288094925E+01  6.288678366E+01  5.110000000E-04  0.00000E+00  9.000E+00
     -11     1     3     3     0     0  3.050216717E-01  2.713735287E-01  4.111154449E+00  4.131376645E+00  5.110000000E-04  0.00000E+00  9.000E+00
      21     1     1     2   501   502 -7.254256641E-02  5.530863403E-01  3.429202856E+01  3.429656527E+01  4.768371582E-07  0.00000E+00  9.000E+00
#rwgt            1          23  -1047158.6690373091                3     3286783           0
<weights>
-.11145E+08
-.12835E+08
-.92849E+07
-.15601E+08
-.74396E+07
-.91694E+07
-.13910E+08
-.11152E+08
-.11146E+08
-.10820E+08
-.10806E+08
-.10961E+08
-.11001E+08
-.10836E+08
-.10817E+08
-.11223E+08
-.11219E+08
-.11470E+08
-.11507E+08
-.11495E+08
-.11447E+08
-.11510E+08
-.11527E+08
-.11418E+08
-.11327E+08
-.11294E+08
-.11327E+08
-.11445E+08
-.11373E+08
-.11489E+08
-.11521E+08
-.11183E+08
-.11220E+08
-.11137E+08
-.11179E+08
-.11194E+08
-.11118E+08
-.11142E+08
-.11075E+08
-.11168E+08
-.11126E+08
-.11188E+08
-.11101E+08
-.11512E+08
-.10808E+08
</weights>
</event>
<event>
      6  10001 -1.11453E+07  8.94427E-01 -1.00000E+00  1.76927E-01
       2    -1     0     0   501     0  0.000000000E+00  0.000000000E+00  1.289870976E+02  1.289870976E+02  0.000000000E+00  0.00000E+00  9.000E+00
      21    -1     0     0   502   501  0.000000000E+00  0.000000000E+00 -4.413278060E-03  4.413278060E-03  0.000000000E+00  0.00000E+00  9.000E+00
      23     2     1     2     0     0  3.585615756E-02  3.677759995E-01  1.052183098E+02  1.052242636E+02  1.056596702E+00  0.00000E+00  9.000E+00
      11     1     3     3     0     0 -1.749694559E-01  6.763410783E-01  8.167822932E+01  8.168121691E+01  5.110000000E-04  0.00000E+00  9.000E+00
     -11     1     3     3     0     0  2.108256135E-01 -3.085650788E-01  2.354008049E+01  2.354304673E+01  5.110000000E-04  0.00000E+00  9.000E+00
       2     1     1     2   502     0 -3.585615756E-02 -3.677759995E-01  2.376437456E+01  2.376724727E+01  0.000000000E+00  0.00000E+00  9.000E+00
#rwgt            1          24  -8554659.8286348488                3     3287289           0
<weights>
-.11145E+08
-.12278E+08
-.98399E+07
-.14931E+08
-.78846E+07
-.91648E+07
-.13909E+08
-.11170E+08
-.11122E+08
-.10823E+08
-.10812E+08
-.10962E+08
-.11005E+08
-.10840E+08
-.10823E+08
-.11226E+08
-.11212E+08
-.11463E+08
-.11506E+08
-.11494E+08
-.11439E+08
-.11503E+08
-.11522E+08
-.11416E+08
-.11328E+08
-.11287E+08
-.11366E+08
-.11436E+08
-.11373E+08
-.11481E+08
-.11515E+08
-.11184E+08
-.11217E+08
-.11138E+08
-.11178E+08
-.11207E+08
-.11103E+08
-.11134E+08
-.11083E+08
-.11167E+08
-.11127E+08
-.11185E+08
-.11103E+08
-.11507E+08
-.10813E+08
</weights>
</event>
<event>
      7  10001  1.11453E+07  1.38266E+00 -1.00000E+00  4.51560E-01
      -2    -1     0     0     0   502  0.000000000E+00  0.000000000E+00  3.849967934E-01  3.849967934E-01  0.000000000E+00  0.00000E+00  9.000E+00
       2    -1     0     0   501     0  0.000000000E+00  0.000000000E+00 -1.341990951E+01  1.341990951E+01  0.000000000E+00  0.00000E+00  9.000E+00
      23     2     1     2     0     0 -5.648064167E-01 -3.525690911E-01 -2.112899941E+00  2.645058306E+00  1.445225252E+00  0.00000E+00  9.000E+00
      11     1     3     3     0     0  1.565016189E-01 -6.044932511E-01 -1.619107819E+00  1.735342974E+00  5.110000000E-04  0.00000E+00  9.000E+00
     -11     1     3     3     0     0 -7.213080356E-01  2.519241600E-01 -4.937921223E-01  9.097153323E-01  5.110000000E-04  0.00000E+00  9.000E+00
      21     1     1     2   511   502  6.285740754E-01 -1.166225218E-01 -1.051798719E+01  1.053739819E+01  1.192092896E-07  0.00000E+00  9.000E+00
      21     1     1     2   501   511 -6.376765869E-02  4.691916129E-01 -4.040255875E-01  6.224498047E-01  2.172198852E-08  0.00000E+00  9.000E+00
#rwgt            1           8   363182.38260366296                3     3289199           0
<weights>
0.11145E+08
0.11877E+08
0.10438E+08
0.11659E+08
0.10107E+08
0.11008E+08
0.11089E+08
0.11170E+08
0.11116E+08
0.10885E+08
0.10903E+08
0.11049E+08
0.10968E+08
0.10907E+08
0.10907E+08
0.11087E+08
0.11357E+08
0.11305E+08
0.11512E+08
0.11513E+08
0.11287E+08
0.11404E+08
0.11427E+08
0.11298E+08
0.11323E+08
0.11329E+08
0.11061E+08
0.11489E+08
0.11096E+08
0.11388E+08
0.11386E+08
0.11155E+08
0.11214E+08
0.11098E+08
0.11236E+08
0.11059E+08
0.11247E+08
0.11017E+08
0.11182E+08
0.11120E+08
0.11163E+08
0.11226E+08
0.11060E+08
0.11414E+08
0.10896E+08
</weights>
</event>
<event>
      7  10001  1.11453E+07  8.94427E-01 -1.00000E+00  6.07649E-01
      21    -1     0     0   512   502  0.000000000E+00  0.000000000E+00  1.005787510E+00  1.005787510E+00  0.000000000E+00  0.00000E+00  9.000E+00
       2    -1     0     0   501     0  0.000000000E+00  0.000000000E+00 -3.948261075E+02  3.948261075E+02  0.000000000E+00  0.00000E+00  9.000E+00
      23     2     1     2     0     0  1.242172848E-01  3.833475923E-01 -3.915787032E+02  3.915849066E+02  2.167005233E+00  0.00000E+00  9.000E+00
      11     1     3     3     0     0  5.758928247E-01  1.146239741E+00 -2.645181211E+02  2.645212315E+02  5.110000000E-04  0.00000E+00  9.000E+00
     -11     1     3     3     0     0 -4.516755399E-01 -7.628921484E-01 -1.270605820E+02  1.270636750E+02  5.110000000E-04  0.00000E+00  9.000E+00
      21     1     1     2   501   502 -8.390777169E-01 -4.715463613E-01  7.181150794E-01  1.200873288E+00  6.091276835E-07  0.00000E+00  9.000E+00
       2     1     1     2   512     0  7.148604321E-01  8.819876902E-02 -2.959731926E+00  3.046115154E+00  0.000000000E+00  0.00000E+00  9.000E+00
#rwgt            2         190   349631908.18844879                3     3290673           0
<weights>
0.11145E+08
0.10020E+08
0.12378E+08
0.12178E+08
0.99176E+07
0.91702E+07
0.13910E+08
0.11128E+08
0.11161E+08
0.11167E+08
0.11155E+08
0.11010E+08
0.11301E+08
0.11159E+08
0.11156E+08
0.11316E+08
0.10889E+08
0.11423E+08
0.10737E+08
0.10682E+08
0.11455E+08
0.11106E+08
0.11167E+08
0.11077E+08
0.11171E+08
0.11289E+08
0.11052E+08
0.10810E+08
0.11497E+08
0.11075E+08
0.11179E+08
0.11022E+08
0.11266E+08
0.11448E+08
0.10768E+08
0.11108E+08
0.11178E+08
0.11155E+08
0.11140E+08
0.11234E+08
0.11065E+08
0.11140E+08
0.11151E+08
0.11129E+08
0.11161E+08
</weights>
</event>
<event>
      7  10001  1.11453E+07  1.18195E+01 -1.00000E+00  1.87333E-01
       2    -1     0     0   501     0  0.000000000E+00  0.000000000E+00  3.795902044E-01  3.795902044E-01  0.000000000E+00  0.00000E+00  9.000E+00
      21    -1     0     0   502   501  0.000000000E+00  0.000000000E+00 -1.213741743E+02  1.213741743E+02  0.000000000E+00  0.00000E+00  9.000E+00
      23     2     1     2     0     0  3.052328774E+00  5.387819533E-01 -2.859930603E+01  2.879585413E+01  1.293797769E+00  0.00000E+00  9.000E+00
      11     1     3     3     0     0  2.710980727E+00  2.515066863E-01 -1.993409860E+01  2.011916896E+01  5.110000000E-04  0.00000E+00  9.000E+00
     -11     1     3     3     0     0  3.413480473E-01  2.872752670E-01 -8.665207427E+00  8.676685173E+00  5.110000000E-04  0.00000E+00  9.000E+00
       2     1     1     2   511     0  1.034787899E+00  3.073873223E+00 -1.390260680E+01  1.427592233E+01  0.000000000E+00  0.00000E+00  9.000E+00
      21     1     1     2   502   511 -4.087116673E+00 -3.612655176E+00 -7.849267128E+01  7.868198806E+01  9.536743164E-07  0.00000E+00  9.000E+00
#rwgt            2         248   674518.01254292799                3     3290734           0
<weights>
0.11145E+08
0.10073E+08
0.12355E+08
0.12243E+08
0.98998E+07
0.91702E+07
0.13910E+08
0.11136E+08
0.11154E+08
0.11238E+08
0.11244E+08
0.11098E+08
0.11303E+08
0.11278E+08
0.11266E+08
0.11136E+08
0.11055E+08
0.11029E+08
0.10955E+08
0.10951E+08
0.11043E+08
0.11011E+08
0.10950E+08
0.11095E+08
0.11012E+08
0.11064E+08
0.11153E+08
0.11033E+08
0.11028E+08
0.10999E+08
0.10999E+08
0.11115E+08
0.11132E+08
0.11138E+08
0.11143E+08
0.11181E+08
0.11108E+08
0.11030E+08
0.11322E+08
0.11041E+08
0.11242E+08
0.11095E+08
0.11199E+08
0.11019E+08
0.11248E+08
</weights>
</event>
<event>
      6  10001 -1.11453E+07  8.94427E-01 -1.00000E+00  1.39256E-01
      -4    -1     0     0     0   502  0.000000000E+00  0.000000000E+00  1.386237753E-02  1.386237753E-02  0.000000000E+00  0.00000E+00  9.000E+00
      21    -1     0     0   502   501  0.000000000E+00  0.000000000E+00 -6.746106333E+01  6.746106333E+01  0.000000000E+00  0.00000E+00  9.000E+00
      23     2     1     2     0     0  4.582301983E-01  1.174774119E-01 -5.690255190E+01  5.691967112E+01  1.313305501E+00  0.00000E+00  9.000E+00
      11     1     3     3     0     0 -1.219336262E-01  4.615589956E-01 -4.104929373E+01  4.105206963E+01  5.110000000E-04  0.00000E+00  9.000E+00
     -11     1     3     3     0     0  5.801638245E-01 -3.440815837E-01 -1.585325817E+01  1.586760149E+01  5.110000000E-04  0.00000E+00  9.000E+00
      -4     1     1     2     0   501 -4.582301983E-01 -1.174774119E-01 -1.054464905E+01  1.055525459E+01  0.000000000E+00  0.00000E+00  9.000E+00
#rwgt            1           3  -226494.08045330463                3     3290890           0
<weights>
-.11145E+08
-.12364E+08
-.96726E+07
-.15027E+08
-.77502E+07
-.91702E+07
-.13910E+08
-.11196E+08
-.11095E+08
-.11062E+08
-.11123E+08
-.11041E+08
-.11202E+08
-.11121E+08
-.11129E+08
-.11171E+08
-.11078E+08
-.11156E+08
-.11122E+08
-.11116E+08
-.11160E+08
-.11144E+08
-.11140E+08
-.11111E+08
-.11193E+08
-.11182E+08
-.11097E+08
-.11137E+08
-.11103E+08
-.11104E+08
-.11145E+08
-.11098E+08
-.11194E+08
-.11157E+08
-.11129E+08
-.11246E+08
-.11052E+08
-.10891E+08
-.11441E+08
-.11067E+08
-.11217E+08
-.11123E+08
-.11170E+08
-.11179E+08
-.11100E+08
</weights>
</event>
<event>
      6  10001 -1.11453E+07  8.94427E-01 -1.00000E+00  4.62918E-01
       2    -1     0     0   501     0  0.000000000E+00  0.000000000E+00  1.847246104E+02  1.847246104E+02  0.000000000E+00  0.00000E+00  9.000E+00
      21    -1     0     0   502   501  0.000000000E+00  0.000000000E+00 -5.776831131E-03  5.776831131E-03  0.000000000E+00  0.00000E+00  9.000E+00
      23     2     1     2     0     0 -1.233849454E-01  5.328636560E-01  1.616344565E+02  1.616395312E+02  1.158167297E+00  0.00000E+00  9.000E+00
      11     1     3     3     0     0  4.377618158E-01 -7.642533730E-02  6.541399404E+01  6.541550346E+01  5.110000000E-04  0.00000E+00  9.000E+00
     -11     1     3     3     0     0 -5.611467612E-01  6.092889933E-01  9.622046248E+01  9.622402776E+01  5.110000000E-04  0.00000E+00  9.000E+00
       2     1     1     2   502     0  1.233849454E-01 -5.328636560E-01  2.308437705E+01  2.309085601E+01  0.000000000E+00  0.00000E+00  9.000E+00
#rwgt            1          24  -11645022.911073627                3     3292535           0
<weights>
-.11145E+08
-.12321E+08
-.97840E+07
-.14984E+08
-.78397E+07
-.91651E+07
-.13909E+08
-.11169E+08
-.11123E+08
-.10822E+08
-.10811E+08
-.10962E+08
-.11004E+08
-.10839E+08
-.10822E+08
-.11226E+08
-.11213E+08
-.11464E+08
-.11508E+08
-.11496E+08
-.11440E+08
-.11504E+08
-.11523E+08
-.11419E+08
-.11327E+08
-.11286E+08
-.11373E+08
-.11437E+08
-.11374E+08
-.11482E+08
-.11517E+08
-.11184E+08
-.11217E+08
-.11138E+08
-.11178E+08
-.11206E+08
-.11104E+08
-.11135E+08
-.11081E+08
-.11167E+08
-.11127E+08
-.11186E+08
-.11103E+08
-.11508E+08
-.10812E+08
</weights>
</event>
<event>
      7  10001  1.11453E+07  8.94427E-01 -1.00000E+00  6.07649E-01
       1    -1     0     0   501     0  0.000000000E+00  0.000000000E+00  2.929379661E+01  2.929379661E+01  0.000000000E+00  0.00000E+00  9.000E+00
      21    -1     0     0   511   502  0.000000000E+00  0.000000000E+00 -2.872465660E+00  2.872465660E+00  0.000000000E+00  0.00000E+00  9.000E+00
      23     2     1     2     0     0 -2.074832445E+00  3.782928112E-01  2.731607962E+01  2.741751296E+01  1.050607291E+00  0.00000E+00  9.000E+00
      11     1     3     3     0     0 -1.991978057E+00  1.020456328E-01  2.557951768E+01  2.565716498E+01  5.110000000E-04  0.00000E+00  9.000E+00
     -11     1     3     3     0     0 -8.285438802E-02  2.762471784E-01  1.736561940E+00  1.760347973E+00  5.110000000E-04  0.00000E+00  9.000E+00
      21     1     1     2   501   502  1.559427862E+00 -4.871518003E-01 -2.540651753E+00  3.020603162E+00  1.892623461E-06  0.00000E+00  9.000E+00
       1     1     1     2   511     0  5.154045835E-01  1.088589891E-01  1.645903077E+00  1.728146146E+00  0.000000000E+00  0.00000E+00  9.000E+00
#rwgt            2         219   221569.51811587153                3     3294602           0
<weights>
0.11145E+08
0.10536E+08
0.11643E+08
0.12806E+08
0.93291E+07
0.91702E+07
0.13910E+08
0.11203E+08
0.11084E+08
0.10869E+08
0.10881E+08
0.10976E+08
0.11049E+08
0.10895E+08
0.10889E+08
0.11221E+08
0.11175E+08
0.11403E+08
0.11409E+08
0.11405E+08
0.11382E+08
0.11422E+08
0.11449E+08
0.11285E+08
0.11338E+08
0.11289E+08
0.11123E+08
0.11371E+08
0.11304E+08
0.11392E+08
0.11434E+08
0.11163E+08
0.11213E+08
0.11140E+08
0.11167E+08
0.11239E+08
0.11066E+08
0.11051E+08
0.11166E+08
0.11145E+08
0.11146E+08
0.11170E+08
0.11119E+08
0.11437E+08
0.10874E+08
</weights>
</event>
<event>
      6  10001 -1.11453E+07  8.94427E-01 -1.00000E+00  2.41857E-01
      21    -1     0     0   502   501  0.000000000E+00  0.000000000E+00  2.441725546E-02  2.441725546E-02  0.000000000E+00  0.00000E+00  9.000E+00
       4    -1     0     0   501     0  0.000000000E+00  0.000000000E+00 -2.986199947E+02  2.986199947E+02  0.000000000E+00  0.00000E+00  9.000E+00
      23     2     1     2     0     0  8.691558925E-01  1.009159298E-01 -2.900891462E+02  2.900930969E+02  1.235529419E+00  0.00000E+00  9.000E+00
      11     1     3     3     0     0  8.894915595E-01 -1.376078824E-01 -2.786146218E+02  2.786160757E+02  5.110000000E-04  0.00000E+00  9.000E+00
     -11     1     3     3     0     0 -2.033566705E-02  2.385238122E-01 -1.147452434E+01  1.147702123E+01  5.110000000E-04  0.00000E+00  9.000E+00
       4     1     1     2   502     0 -8.691558925E-01 -1.009159298E-01 -8.506431323E+00  8.551315095E+00  0.000000000E+00  0.00000E+00  9.000E+00
#rwgt            1          19  -2422139.9815999633                3     3294834           0
<weights>
-.11145E+08
-.12234E+08
-.98739E+07
-.14869E+08
-.79115E+07
-.91702E+07
-.13910E+08
-.10831E+08
-.11454E+08
-.11987E+08
-.11570E+08
-.11248E+08
-.11751E+08
-.11718E+08
-.11696E+08
-.11005E+08
-.11117E+08
-.10625E+08
-.10617E+08
-.10630E+08
-.10657E+08
-.10592E+08
-.10537E+08
-.11135E+08
-.10431E+08
-.10655E+08
-.11350E+08
-.10765E+08
-.10848E+08
-.10755E+08
-.10572E+08
-.11326E+08
-.10786E+08
-.11005E+08
-.11288E+08
-.10866E+08
-.11389E+08
-.11955E+08
-.10343E+08
-.10912E+08
-.11367E+08
-.10976E+08
-.11327E+08
-.10495E+08
-.11776E+08
</weights>
</event>
<event>
      6  10001 -1.11453E+07  8.94427E-01 -1.00000E+00  5.30561E-01
      21    -1     0     0   502   501  0.000000000E+00  0.000000000E+00  1.884949564E-02  1.884949564E-02  0.000000000E+00  0.00000E+00  9.000E+00
       2    -1     0     0   501     0  0.000000000E+00  0.000000000E+00 -4.875473879E+01  4.875473879E+01  0.000000000E+00  0.00000E+00  9.000E+00
      23     2     1     2     0     0  5.821571516E-01  5.541880981E-02 -3.065250956E+01  3.068075543E+01  1.179166282E+00  0.00000E+00  9.000E+00
      11     1     3     3     0     0  3.776189395E-01 -3.545789062E-01 -5.563519348E+00  5.587581772E+00  5.110000000E-04  0.00000E+00  9.000E+00
     -11     1     3     3     0     0  2.045382121E-01  4.099977160E-01 -2.508899022E+01  2.509317366E+01  5.110000000E-04  0.00000E+00  9.000E+00
       2     1     1     2   502     0 -5.821571516E-01 -5.541880981E-02 -1.808337973E+01  1.809283285E+01  0.000000000E+00  0.00000E+00  9.000E+00
#rwgt            1          17  -5960234.2765866090                3     3296072           0
<weights>
-.11145E+08
-.12693E+08
-.94764E+07
-.15427E+08
-.75930E+07
-.91702E+07
-.13910E+08
-.11188E+08
-.11103E+08
-.11070E+08
-.11111E+08
-.11148E+08
-.11058E+08
-.11103E+08
-.11110E+08
-.11101E+08
-.11196E+08
-.11079E+08
-.11305E+08
-.11316E+08
-.11069E+08
-.11179E+08
-.11175E+08
-.11236E+08
-.11107E+08
-.11118E+08
-.11154E+08
-.11315E+08
-.10933E+08
-.11177E+08
-.11157E+08
-.11143E+08
-.11155E+08
-.11067E+08
-.11253E+08
-.11121E+08
-.11169E+08
-.11027E+08
-.11269E+08
-.11078E+08
-.11199E+08
-.11207E+08
-.11079E+08
-.11191E+08
-.11096E+08
</weights>
</event>
<event>
      7  10001  1.11453E+07  2.50860E+00 -1.00000E+00  3.16515E-01
      -4    -1     0     0     0   502  0.000000000E+00  0.000000000E+00  3.224293260E+00  3.224293260E+00  0.000000000E+00  0.00000E+00  9.000E+00
      21    -1     0     0   501   511  0.000000000E+00  0.000000000E+00 -3.971202387E+01  3.971202387E+01  0.000000000E+00  0.00000E+00  9.000E+00
      23     2     1     2     0     0  1.156412401E+00 -1.201133839E+00  8.056666551E-01  5.341869795E+00  5.010634890E+00  0.00000E+00  9.000E+00
      11     1     3     3     0     0 -5.260160657E-01 -1.098447033E-01 -1.899737970E+00  1.974275406E+00  5.110000000E-04  0.00000E+00  9.000E+00
     -11     1     3     3     0     0  1.682428466E+00 -1.091289135E+00  2.705404625E+00  3.367594389E+00  5.110000000E-04  0.00000E+00  9.000E+00
      21     1     1     2   501   502 -1.096470339E+00 -1.306745549E+00 -7.314495016E+00  7.510770165E+00  8.429369702E-08  0.00000E+00  9.000E+00
      -4     1     1     2     0   511 -5.994206143E-02  2.507879388E+00 -2.997890225E+01  3.008367717E+01  0.000000000E+00  0.00000E+00  9.000E+00
#rwgt            1           4   346804.41892958904                3     3299378           0
<weights>
0.11145E+08
0.12582E+08
0.96680E+07
0.12456E+08
0.94609E+07
0.11025E+08
0.11063E+08
0.11229E+08
0.11057E+08
0.10772E+08
0.10786E+08
0.10922E+08
0.11015E+08
0.10795E+08
0.10793E+08
0.11227E+08
0.11233E+08
0.11500E+08
0.11526E+08
0.11524E+08
0.11473E+08
0.11526E+08
0.11579E+08
0.11312E+08
0.11446E+08
0.11421E+08
0.11032E+08
0.11489E+08
0.11337E+08
0.11490E+08
0.11542E+08
0.11171E+08
0.11236E+08
0.11136E+08
0.11177E+08
0.11291E+08
0.11019E+08
0.11024E+08
0.11133E+08
0.11164E+08
0.11131E+08
0.11168E+08
0.11122E+08
0.11546E+08
0.10775E+08
</weights>
</event>
<event>
      7  10001  1.11453E+07  8.94427E-01 -1.00000E+00  6.07649E-01
      21    -1     0     0   511   502  0.000000000E+00  0.000000000E+00  1.861893391E+00  1.861893391E+00  0.000000000E+00  0.00000E+00  9.000E+00
       1    -1     0     0   501     0  0.000000000E+00  0.000000000E+00 -1.122715450E+01  1.122715450E+01  0.000000000E+00  0.00000E+00  9.000E+00
      23     2     1     2     0     0 -1.196805615E-01 -4.499233602E-01 -1.064613114E+01  1.085260278E+01  2.054780824E+00  0.00000E+00  9.000E+00
      11     1     3     3     0     0  1.444625846E-01 -6.421731578E-01 -1.045173842E+01  1.047244442E+01  5.110000000E-04  0.00000E+00  9.000E+00
     -11     1     3     3     0     0 -2.641431461E-01  1.922497976E-01 -1.943927231E-01  3.801583594E-01  5.110000000E-04  0.00000E+00  9.000E+00
      21     1     1     2   501   502 -1.548495027E-01  8.907230320E-01  1.433852983E+00  1.695081197E+00  2.289159819E-07  0.00000E+00  9.000E+00
       1     1     1     2   511     0  2.745300642E-01 -4.407996718E-01 -1.529829465E-01  5.413639152E-01  0.000000000E+00  0.00000E+00  9.000E+00
#rwgt            2         187   727104.46697857569                3     3304227           0
<weights>
0.11145E+08
0.11019E+08
0.11073E+08
0.13392E+08
0.88724E+07
0.91702E+07
0.13910E+08
0.11165E+08
0.11121E+08
0.10927E+08
0.10926E+08
0.10952E+08
0.11106E+08
0.10943E+08
0.10943E+08
0.11132E+08
0.11210E+08
0.11400E+08
0.11251E+08
0.11217E+08
0.11399E+08
0.11351E+08
0.11395E+08
0.11237E+08
0.11320E+08
0.11387E+08
0.11014E+08
0.11257E+08
0.11277E+08
0.11315E+08
0.11369E+08
0.11128E+08
0.11227E+08
0.11218E+08
0.11044E+08
0.11076E+08
0.11226E+08
0.11009E+08
0.11209E+08
0.11128E+08
0.11155E+08
0.11212E+08
0.11075E+08
0.11374E+08
0.10931E+08
</weights>
</event>
<event>
      6  10001 -1.11453E+07  8.94427E-01 -1.00000E+00  6.38508E-01
       2    -1     0     0   501     0  0.000000000E+00  0.000000000E+00  9.908421815E+01  9.908421815E+01  0.000000000E+00  0.00000E+00  9.000E+00
      21    -1     0     0   502   501  0.000000000E+00  0.000000000E+00 -1.004184565E-02  1.004184565E-02  0.000000000E+00  0.00000E+00  9.000E+00
      23     2     1     2     0     0  3.675474004E-01 -3.464600564E-01  8.403228021E+01  8.404388578E+01  1.302111929E+00  0.00000E+00  9.000E+00
      11     1     3     3     0     0  3.706055284E-01 -4.379153400E-01  1.424723568E+01  1.425878126E+01  5.110000000E-04  0.00000E+00  9.000E+00
     -11     1     3     3     0     0 -3.058128007E-03  9.145528366E-02  6.978504453E+01  6.978510452E+01  5.110000000E-04  0.00000E+00  9.000E+00
       2     1     1     2   502     0 -3.675474004E-01  3.464600564E-01  1.504189610E+01  1.505037421E+01  0.000000000E+00  0.00000E+00  9.000E+00
#rwgt            1          24  -10578511.762363378                3     3304269           0
<weights>
-.11145E+08
-.13262E+08
-.87252E+07
-.16126E+08
-.69912E+07
-.91662E+07
-.13909E+08
-.11170E+08
-.11120E+08
-.10889E+08
-.10882E+08
-.10988E+08
-.11047E+08
-.10908E+08
-.10893E+08
-.11216E+08
-.11182E+08
-.11396E+08
-.11416E+08
-.11407E+08
-.11378E+08
-.11424E+08
-.11437E+08
-.11345E+08
-.11292E+08
-.11258E+08
-.11278E+08
-.11369E+08
-.11320E+08
-.11404E+08
-.11434E+08
-.11174E+08
-.11202E+08
-.11136E+08
-.11174E+08
-.11205E+08
-.11101E+08
-.11119E+08
-.11109E+08
-.11150E+08
-.11142E+08
-.11175E+08
-.11114E+08
-.11429E+08
-.10883E+08
</weights>
</event>
<event>
      7  10001  1.11453E+07  8.94427E-01 -1.00000E+00  6.07649E-01
      21    -1     0     0   501   511  0.000000000E+00  0.000000000E+00  3.164216933E-01  3.164216933E-01  0.000000000E+00  0.00000E+00  9.000E+00
      -2    -1     0     0     0   502  0.000000000E+00  0.000000000E+00 -2.592582324E+01  2.592582324E+01  0.000000000E+00  0.00000E+00  9.000E+00
      23     2     1     2     0     0  9.715476322E-01 -2.560899931E-01 -2.329578007E+01  2.333992340E+01  1.024289347E+00  0.00000E+00  9.000E+00
      11     1     3     3     0     0  7.401268698E-01 -5.698764808E-01 -1.156374085E+01  1.160140723E+01  5.110000000E-04  0.00000E+00  9.000E+00
     -11     1     3     3     0     0  2.314207624E-01  3.137864877E-01 -1.173203921E+01  1.173851617E+01  5.110000000E-04  0.00000E+00  9.000E+00
      21     1     1     2   501   502 -7.886255519E-01  2.452636590E-01 -2.974134324E-01  8.778036645E-01  1.605336474E-07  0.00000E+00  9.000E+00
      -2     1     1     2     0   511 -1.829220803E-01  1.082633411E-02 -2.016208043E+00  2.024517861E+00  0.000000000E+00  0.00000E+00  9.000E+00
#rwgt            2         161   247682.58285757512                3     3306255           0
<weights>
0.11145E+08
0.11313E+08
0.10723E+08
0.13750E+08
0.85915E+07
0.91702E+07
0.13910E+08
0.11219E+08
0.11071E+08
0.10932E+08
0.10989E+08
0.11016E+08
0.11057E+08
0.10978E+08
0.10989E+08
0.11116E+08
0.11242E+08
0.11314E+08
0.11277E+08
0.11256E+08
0.11315E+08
0.11293E+08
0.11337E+08
0.11224E+08
0.11281E+08
0.11327E+08
0.11040E+08
0.11291E+08
0.11126E+08
0.11255E+08
0.11299E+08
0.11087E+08
0.11251E+08
0.11225E+08
0.11074E+08
0.11063E+08
0.11232E+08
0.10907E+08
0.11348E+08
0.11114E+08
0.11166E+08
0.11229E+08
0.11056E+08
0.11328E+08
0.10968E+08
</weights>
</event>
<event>
      7  10001  1.11453E+07  2.50562E+00 -1.00000E+00  3.16689E-01
      21    -1     0     0   502   501  0.000000000E+00  0.000000000E+00  2.324138833E+02  2.324138833E+02  0.000000000E+00  0.00000E+00  9.000E+00
      -4    -1     0     0     0   502  0.000000000E+00  0.000000000E+00 -5.595036500E-02  5.595036500E-02  0.000000000E+00  0.00000E+00  9.000E+00
      23     2     1     2     0     0 -5.435484539E-01 -8.502845326E-01  1.186305332E+01  1.196556898E+01  1.193473247E+00  0.00000E+00  9.000E+00
      11     1     3     3     0     0 -2.287426748E-01 -5.819714566E-01  2.037096667E+00  2.130909918E+00  5.110000000E-04  0.00000E+00  9.000E+00
     -11     1     3     3     0     0 -3.148057791E-01 -2.683130760E-01  9.825956649E+00  9.834659064E+00  5.110000000E-04  0.00000E+00  9.000E+00
      -4     1     1     2     0   511 -1.542940517E-01  9.820578673E-01  6.351924584E+01  6.352702446E+01  0.000000000E+00  0.00000E+00  9.000E+00
      21     1     1     2   511   501  6.978425056E-01 -1.317733348E-01  1.569756338E+02  1.569772403E+02  3.303624740E-06  0.00000E+00  9.000E+00
#rwgt            2         154   260620.93717702373                3     3306354           0
<weights>
0.11145E+08
0.10580E+08
0.11605E+08
0.12858E+08
0.92985E+07
0.91702E+07
0.13910E+08
0.11170E+08
0.11120E+08
0.10799E+08
0.10777E+08
0.10951E+08
0.10988E+08
0.10812E+08
0.10790E+08
0.11231E+08
0.11228E+08
0.11499E+08
0.11539E+08
0.11527E+08
0.11472E+08
0.11544E+08
0.11558E+08
0.11444E+08
0.11339E+08
0.11303E+08
0.11348E+08
0.11474E+08
0.11400E+08
0.11525E+08
0.11556E+08
0.11196E+08
0.11217E+08
0.11134E+08
0.11185E+08
0.11206E+08
0.11105E+08
0.11176E+08
0.11040E+08
0.11178E+08
0.11118E+08
0.11190E+08
0.11099E+08
0.11542E+08
0.10782E+08
</weights>
</event>
<event>
      7  10001  1.11453E+07  8.94427E-01 -1.00000E+00  6.07649E-01
      21    -1     0     0   512   502  0.000000000E+00  0.000000000E+00  9.314039390E-02  9.314039390E-02  0.000000000E+00  0.00000E+00  9.000E+00
       2    -1     0     0   501     0  0.000000000E+00  0.000000000E+00 -2.111864557E+02  2.111864557E+02  0.000000000E+00  0.00000E+00  9.000E+00
      23     2     1     2     0     0 -1.207870170E-01  4.200853624E-01 -2.066224726E+02  2.066253756E+02  1.004295047E+00  0.00000E+00  9.000E+00
      11     1     3     3     0     0 -3.632918241E-01  4.191895519E-01 -1.926507076E+02  1.926515062E+02  5.110000000E-04  0.00000E+00  9.000E+00
     -11     1     3     3     0     0  2.425048071E-01  8.958105082E-04 -1.397176496E+01  1.397386939E+01  5.110000000E-04  0.00000E+00  9.000E+00
      21     1     1     2   501   502 -1.722084149E-01 -2.143631282E-01 -1.399096606E-01  3.085158052E-01  4.502133159E-07  0.00000E+00  9.000E+00
       2     1     1     2   512     0  2.929954320E-01 -2.057222341E-01 -4.330933074E+00  4.345704690E+00  0.000000000E+00  0.00000E+00  9.000E+00
#rwgt            2         190   9219593.5534137711                3     3307783           0
<weights>
0.11145E+08
0.10877E+08
0.11261E+08
0.13219E+08
0.90230E+07
0.91702E+07
0.13910E+08
0.11129E+08
0.11161E+08
0.11173E+08
0.11169E+08
0.11096E+08
0.11210E+08
0.11171E+08
0.11169E+08
0.11308E+08
0.10887E+08
0.11244E+08
0.10943E+08
0.10921E+08
0.11254E+08
0.11103E+08
0.11139E+08
0.11174E+08
0.11062E+08
0.11137E+08
0.11139E+08
0.11019E+08
0.11219E+08
0.11101E+08
0.11139E+08
0.11059E+08
0.11222E+08
0.11241E+08
0.11015E+08
0.11137E+08
0.11149E+08
0.11171E+08
0.11120E+08
0.11165E+08
0.11125E+08
0.11165E+08
0.11124E+08
0.11117E+08
0.11172E+08
</weights>
</event>
<event>
      7  10001  1.11453E+07  1.86073E+00 -1.00000E+00  3.67901E-01
      21    -1     0     0   511   501  0.000000000E+00  0.000000000E+00  8.210888528E+00  8.210888528E+00  0.000000000E+00  0.00000E+00  9.000E+00
       1    -1     0     0   501     0  0.000000000E+00  0.000000000E+00 -1.793547336E+01  1.793547336E+01  0.000000000E+00  0.00000E+00  9.000E+00
      23     2     1     2     0     0 -4.906350518E-02  3.912101263E-01 -1.450246785E+01  1.460646499E+01  1.694636661E+00  0.00000E+00  9.000E+00
      11     1     3     3     0     0 -7.080133204E-01 -2.492791245E-01 -4.532048183E+00  4.593787537E+00  5.110000000E-04  0.00000E+00  9.000E+00
     -11     1     3     3     0     0  6.589498152E-01  6.404892509E-01 -9.970419663E+00  1.001267746E+01  5.110000000E-04  0.00000E+00  9.000E+00
       1     1     1     2   502     0  7.686999130E-01 -2.107142164E+00 -2.884999745E+00  3.654335943E+00  0.000000000E+00  0.00000E+00  9.000E+00
      21     1     1     2   511   502 -7.196364078E-01  1.715932038E+00  7.662882760E+00  7.885560951E+00  0.000000000E+00  0.00000E+00  9.000E+00
#rwgt            1          16   366002.47750935616                3     3308965           0
<weights>
0.11145E+08
0.13191E+08
0.90391E+07
0.12329E+08
0.95869E+07
0.11640E+08
0.10119E+08
0.11159E+08
0.11125E+08
0.10919E+08
0.10899E+08
0.10909E+08
0.11118E+08
0.10923E+08
0.10924E+08
0.11085E+08
0.11246E+08
0.11457E+08
0.11203E+08
0.11147E+08
0.11462E+08
0.11367E+08
0.11428E+08
0.11246E+08
0.11340E+08
0.11468E+08
0.10970E+08
0.11217E+08
0.11322E+08
0.11326E+08
0.11393E+08
0.11121E+08
0.11239E+08
0.11270E+08
0.10961E+08
0.10974E+08
0.11327E+08
0.11012E+08
0.11193E+08
0.11133E+08
0.11147E+08
0.11250E+08
0.11033E+08
0.11392E+08
0.10916E+08
</weights>
</event>
<event>
      7  10001  1.11453E+07  1.01423E+00 -1.00000E+00  5.57142E-01
       2    -1     0     0   501     0  0.000000000E+00  0.000000000E+00  3.339391270E+00  3.339391270E+00  0.000000000E+00  0.00000E+00  9.000E+00
      -2    -1     0     0     0   502  0.000000000E+00  0.000000000E+00 -3.294223744E-01  3.294223744E-01  0.000000000E+00  0.00000E+00  9.000E+00
      23     2     1     2     0     0 -2.504974946E-01 -1.396943580E-01  1.448181001E+00  2.035270358E+00  1.401011674E+00  0.00000E+00  9.000E+00
      11     1     3     3     0     0 -3.562230850E-01 -3.647526859E-01  1.642425389E+00  1.719738592E+00  5.110000000E-04  0.00000E+00  9.000E+00
     -11     1     3     3     0     0  1.057255904E-01  2.250583279E-01 -1.942443880E-01  3.155317651E-01  5.110000000E-04  0.00000E+00  9.000E+00
       1     1     1     2   501     0  1.666635930E-02 -4.040720919E-02 -4.067954639E-04  4.371127508E-02  0.000000000E+00  0.00000E+00  9.000E+00
      -1     1     1     2     0   502  2.338311353E-01  1.801015672E-01  1.562194690E+00  1.589832011E+00  0.000000000E+00  0.00000E+00  9.000E+00
#rwgt            1          23   269561.92233074358                3     3315153           0
<weights>
0.11145E+08
0.14751E+08
0.81973E+07
0.90242E+07
0.11622E+08
0.14799E+08
0.52684E+07
0.10613E+08
0.11789E+08
0.10750E+08
0.10641E+08
0.10974E+08
0.10845E+08
0.10734E+08
0.10665E+08
0.11130E+08
0.11460E+08
0.11653E+08
0.11613E+08
0.11579E+08
0.11631E+08
0.11705E+08
0.11654E+08
0.11697E+08
0.11223E+08
0.11449E+08
0.11270E+08
0.11675E+08
0.11384E+08
0.11718E+08
0.11678E+08
0.11158E+08
0.11303E+08
0.11138E+08
0.11205E+08
0.10733E+08
0.11628E+08
0.11364E+08
0.10861E+08
0.11210E+08
0.11083E+08
0.11280E+08
0.11002E+08
0.11654E+08
0.10687E+08
</weights>
</event>
<event>
      6  10001 -1.11453E+07  8.94427E-01 -1.00000E+00  2.61403E-01
       2    -1     0     0   501     0  0.000000000E+00  0.000000000E+00  9.457772853E+02  9.457772853E+02  0.000000000E+00  0.00000E+00  9.000E+00
      21    -1     0     0   502   501  0.000000000E+00  0.000000000E+00 -5.632143520E-03  5.632143520E-03  0.000000000E+00  0.00000E+00  9.000E+00
      23     2     1     2     0     0 -1.020607445E+00 -4.727641554E-01  8.793267564E+02  8.793285011E+02  1.342830800E+00  0.00000E+00  9.000E+00
      11     1     3     3     0     0 -1.259577170E+00 -1.663207942E-01  7.711688289E+02  7.711698755E+02  5.110000000E-04  0.00000E+00  9.000E+00
     -11     1     3     3     0     0  2.389697250E-01 -3.064433612E-01  1.081579274E+02  1.081586255E+02  5.110000000E-04  0.00000E+00  9.000E+00
       2     1     1     2   502     0  1.020607445E+00  4.727641554E-01  6.644489683E+01  6.645441641E+01  0.000000000E+00  0.00000E+00  9.000E+00
#rwgt            1          24  -61219853.225313820                3     3316268           0
<weights>
-.11145E+08
-.11215E+08
-.11038E+08
-.13639E+08
-.88445E+07
-.91653E+07
-.13909E+08
-.11191E+08
-.11100E+08
-.10881E+08
-.10902E+08
-.10986E+08
-.11053E+08
-.10912E+08
-.10908E+08
-.11217E+08
-.11163E+08
-.11376E+08
-.11400E+08
-.11391E+08
-.11359E+08
-.11397E+08
-.11425E+08
-.11302E+08
-.11313E+08
-.11253E+08
-.11238E+08
-.11340E+08
-.11298E+08
-.11365E+08
-.11409E+08
-.11154E+08
-.11216E+08
-.11147E+08
-.11159E+08
-.11225E+08
-.11081E+08
-.11030E+08
-.11208E+08
-.11138E+08
-.11153E+08
-.11172E+08
-.11117E+08
-.11417E+08
-.10891E+08
</weights>
</event>
<event>
      7  10001  1.11453E+07  5.79784E+00 -1.00000E+00  2.26660E-01
       1    -1     0     0   501     0  0.000000000E+00  0.000000000E+00  1.505377076E+03  1.505377076E+03  0.000000000E+00  0.00000E+00  9.000E+00
      21    -1     0     0   502   501  0.000000000E+00  0.000000000E+00 -2.337883283E-01  2.337883283E-01  0.000000000E+00  0.00000E+00  9.000E+00
      23     2     1     2     0     0 -9.931569370E+00  4.396613022E+00  1.252438027E+03  1.252493106E+03  4.472439110E+00  0.00000E+00  9.000E+00
      11     1     3     3     0     0 -1.857421828E+00  2.026277813E-01  8.956983478E+01  8.958932066E+01  5.110000000E-04  0.00000E+00  9.000E+00
     -11     1     3     3     0     0 -8.074147542E+00  4.193985241E+00  1.162868193E+03  1.162903786E+03  5.110000000E-04  0.00000E+00  9.000E+00
       1     1     1     2   511     0  5.800316445E+00 -6.926370678E+00  1.279894238E+02  1.283078754E+02  0.000000000E+00  0.00000E+00  9.000E+00
      21     1     1     2   502   511  4.131252924E+00  2.529757656E+00  1.247158364E+02  1.248098825E+02  0.000000000E+00  0.00000E+00  9.000E+00
#rwgt            1          22   720001.01030981785                3     3316892           0
<weights>
0.11145E+08
0.97546E+07
0.13237E+08
0.10595E+08
0.11823E+08
0.10195E+08
0.12336E+08
0.11188E+08
0.11101E+08
0.10812E+08
0.10813E+08
0.10952E+08
0.11009E+08
0.10838E+08
0.10823E+08
0.11235E+08
0.11195E+08
0.11465E+08
0.11492E+08
0.11482E+08
0.11441E+08
0.11500E+08
0.11521E+08
0.11382E+08
0.11347E+08
0.11293E+08
0.11267E+08
0.11430E+08
0.11367E+08
0.11472E+08
0.11513E+08
0.11179E+08
0.11222E+08
0.11139E+08
0.11175E+08
0.11226E+08
0.11084E+08
0.11097E+08
0.11122E+08
0.11159E+08
0.11134E+08
0.11185E+08
0.11104E+08
0.11509E+08
0.10809E+08
</weights>
</event>
<event>
      6  10001 -1.11453E+07  8.94427E-01 -1.00000E+00  4.52587E-01
      21    -1     0     0   502   501  0.000000000E+00  0.000000000E+00  1.710785518E-02  1.710785518E-02  0.000000000E+00  0.00000E+00  9.000E+00
      -1    -1     0     0     0   502  0.000000000E+00  0.000000000E+00 -9.515751935E+01  9.515751935E+01  0.000000000E+00  0.00000E+00  9.000E+00
      23     2     1     2     0     0  2.255501479E-01  1.802671165E-01 -9.288972612E+01  9.290549659E+01  1.687219149E+00  0.00000E+00  9.000E+00
      11     1     3     3     0     0  5.266281520E-02  5.822515470E-01 -8.594990065E+01  8.595188894E+01  5.110000000E-04  0.00000E+00  9.000E+00
     -11     1     3     3     0     0  1.728873327E-01 -4.019844306E-01 -6.939825473E+00  6.953607651E+00  5.110000000E-04  0.00000E+00  9.000E+00
      -1     1     1     2     0   501 -2.255501479E-01 -1.802671165E-01 -2.250685368E+00  2.269130610E+00  0.000000000E+00  0.00000E+00  9.000E+00
#rwgt            1          15  -901645.73302222556                3     3324202           0
<weights>
-.11145E+08
-.12064E+08
-.10055E+08
-.14662E+08
-.80567E+07
-.91702E+07
-.13910E+08
-.11172E+08
-.11117E+08
-.11151E+08
-.11193E+08
-.11097E+08
-.11147E+08
-.11196E+08
-.11196E+08
-.11050E+08
-.11207E+08
-.11146E+08
-.10998E+08
-.10970E+08
-.11165E+08
-.11079E+08
-.11070E+08
-.11147E+08
-.11077E+08
-.11131E+08
-.11118E+08
-.11087E+08
-.10992E+08
-.11067E+08
-.11086E+08
-.11136E+08
-.11133E+08
-.11303E+08
-.10989E+08
-.11056E+08
-.11212E+08
-.11067E+08
-.11251E+08
-.11107E+08
-.11164E+08
-.11294E+08
-.10985E+08
-.11093E+08
-.11183E+08
</weights>
</event>
<event>
      6  10001 -1.11453E+07  8.94427E-01 -1.00000E+00  3.62059E-01
      21    -1     0     0   502   501  0.000000000E+00  0.000000000E+00  1.714456996E-02  1.714456996E-02  0.000000000E+00  0.00000E+00  9.000E+00
       2    -1     0     0   501     0  0.000000000E+00  0.000000000E+00 -3.158825482E+02  3.158825482E+02  0.000000000E+00  0.00000E+00  9.000E+00
      23     2     1     2     0     0  1.198260629E-01  4.393473073E-01 -3.119677894E+02  3.119755647E+02  2.154986934E+00  0.00000E+00  9.000E+00
      11     1     3     3     0     0  3.300309666E-01  1.907460406E-01 -3.049403703E+02  3.049406086E+02  5.110000000E-04  0.00000E+00  9.000E+00
     -11     1     3     3     0     0 -2.102049036E-01  2.486012667E-01 -7.027419088E+00  7.034956147E+00  5.110000000E-04  0.00000E+00  9.000E+00
       2     1     1     2   502     0 -1.198260629E-01 -4.393473073E-01 -3.897614179E+00  3.924128009E+00  0.000000000E+00  0.00000E+00  9.000E+00
#rwgt            1          17  -81524651.302358240                3     3325610           0
<weights>
-.11145E+08
-.11368E+08
-.10856E+08
-.13816E+08
-.86984E+07
-.91702E+07
-.13910E+08
-.11127E+08
-.11162E+08
-.11170E+08
-.11160E+08
-.11042E+08
-.11267E+08
-.11163E+08
-.11161E+08
-.11334E+08
-.10861E+08
-.11357E+08
-.10813E+08
-.10771E+08
-.11380E+08
-.11104E+08
-.11159E+08
-.11117E+08
-.11126E+08
-.11224E+08
-.11089E+08
-.10891E+08
-.11390E+08
-.11085E+08
-.11164E+08
-.11028E+08
-.11257E+08
-.11364E+08
-.10866E+08
-.11122E+08
-.11165E+08
-.11164E+08
-.11128E+08
-.11207E+08
-.11088E+08
-.11148E+08
-.11142E+08
-.11125E+08
-.11165E+08
</weights>
</event>
<event>
      7  10001  1.11453E+07  8.94427E-01 -1.00000E+00  6.07649E-01
      -2    -1     0     0     0   502  0.000000000E+00  0.000000000E+00  1.051309063E+00  1.051309063E+00  0.000000000E+00  0.00000E+00  9.000E+00
       2    -1     0     0   501     0  0.000000000E+00  0.000000000E+00 -2.804686448E+01  2.804686448E+01  0.000000000E+00  0.00000E+00  9.000E+00
      23     2     1     2     0     0  1.262609816E+00  1.467169592E+00 -9.294536844E-01  2.904890160E+00  1.956459182E+00  0.00000E+00  9.000E+00
      11     1     3     3     0     0  1.657919108E-01  3.206271324E-01  6.005604962E-01  7.006867249E-01  5.110000000E-04  0.00000E+00  9.000E+00
     -11     1     3     3     0     0  1.096817906E+00  1.146542460E+00 -1.530014181E+00  2.204203435E+00  5.110000000E-04  0.00000E+00  9.000E+00
       2     1     1     2   501     0 -8.763905200E-01 -1.018962241E+00 -2.416262129E+01  2.419997132E+01  0.000000000E+00  0.00000E+00  9.000E+00
      -2     1     1     2     0   502 -3.862192965E-01 -4.482073514E-01 -1.903480446E+00  1.993312064E+00  0.000000000E+00  0.00000E+00  9.000E+00
#rwgt            2         109   17181.897033461006                3     3327414           0
<weights>
0.11145E+08
0.10908E+08
0.11289E+08
0.13258E+08
0.90457E+07
0.91702E+07
0.13910E+08
0.11198E+08
0.11092E+08
0.11003E+08
0.11047E+08
0.11113E+08
0.11029E+08
0.11036E+08
0.11046E+08
0.11085E+08
0.11261E+08
0.11141E+08
0.11383E+08
0.11392E+08
0.11130E+08
0.11247E+08
0.11257E+08
0.11241E+08
0.11194E+08
0.11193E+08
0.11119E+08
0.11370E+08
0.10975E+08
0.11236E+08
0.11226E+08
0.11145E+08
0.11176E+08
0.11078E+08
0.11247E+08
0.11110E+08
0.11185E+08
0.10987E+08
0.11281E+08
0.11085E+08
0.11194E+08
0.11211E+08
0.11075E+08
0.11264E+08
0.11030E+08
</weights>
</event>
<event>
      7  10001  1.11453E+07  1.76304E+00 -1.00000E+00  3.79082E-01
       2    -1     0     0   501     0  0.000000000E+00  0.000000000E+00  6.808162792E-01  6.808162792E-01  0.000000000E+00  0.00000E+00  9.000E+00
      21    -1     0     0   502   511  0.000000000E+00  0.000000000E+00 -3.473916099E+01  3.473916099E+01  0.000000000E+00  0.00000E+00  9.000E+00
      23     2     1     2     0     0 -1.235692779E+00  9.296473809E-01 -1.591908673E+00  2.504519368E+00  1.160716651E+00  0.00000E+00  9.000E+00
      11     1     3     3     0     0 -1.041578731E+00  9.308453173E-01 -6.462724094E-01  1.539164561E+00  5.110000000E-04  0.00000E+00  9.000E+00
     -11     1     3     3     0     0 -1.941140482E-01 -1.197936490E-03 -9.456362634E-01  9.653548066E-01  5.110000000E-04  0.00000E+00  9.000E+00
       2     1     1     2   502     0 -5.061804711E-01 -1.202037995E+00 -1.937156386E+00  2.335313442E+00  0.000000000E+00  0.00000E+00  9.000E+00
      21     1     1     2   501   511  1.741873251E+00  2.723906138E-01 -3.052927965E+01  3.058014446E+01  5.840038640E-07  0.00000E+00  9.000E+00
#rwgt            1          24   544224.59527123615                3     3331655           0
<weights>
0.11145E+08
0.14255E+08
0.83125E+07
0.10290E+08
0.10922E+08
0.13767E+08
0.68528E+07
0.11217E+08
0.11065E+08
0.10530E+08
0.10455E+08
0.10816E+08
0.10841E+08
0.10519E+08
0.10475E+08
0.11290E+08
0.11365E+08
0.11834E+08
0.11869E+08
0.11866E+08
0.11778E+08
0.11910E+08
0.11938E+08
0.11609E+08
0.11561E+08
0.11545E+08
0.11144E+08
0.11822E+08
0.11605E+08
0.11896E+08
0.11930E+08
0.11270E+08
0.11253E+08
0.11106E+08
0.11240E+08
0.11274E+08
0.11047E+08
0.11327E+08
0.10763E+08
0.11259E+08
0.11048E+08
0.11219E+08
0.11068E+08
0.11886E+08
0.10476E+08
</weights>
</event>
<event>
      7  10001  1.11453E+07  1.76490E+00 -1.00000E+00  3.78857E-01
      -1    -1     0     0     0   501  0.000000000E+00  0.000000000E+00  2.688472686E+02  2.688472686E+02  0.000000000E+00  0.00000E+00  9.000E+00
       3    -1     0     0   501     0  0.000000000E+00  0.000000000E+00 -7.564817268E-02  7.564817268E-02  0.000000000E+00  0.00000E+00  9.000E+00
      23     2     1     2     0     0  2.013034613E+00 -2.762945992E+00  8.430859854E+01  8.440180092E+01  2.009485785E+00  0.00000E+00  9.000E+00
      11     1     3     3     0     0  1.116100665E+00 -1.592868280E+00  6.768932233E+01  6.771725975E+01  5.110000000E-04  0.00000E+00  9.000E+00
     -11     1     3     3     0     0  8.969339478E-01 -1.170077711E+00  1.661927621E+01  1.668454118E+01  5.110000000E-04  0.00000E+00  9.000E+00
       3     1     1     2   502     0 -4.094110147E-01  2.025878954E+00  4.553358467E+01  4.558046880E+01  0.000000000E+00  0.00000E+00  9.000E+00
      -1     1     1     2     0   502 -1.603623598E+00  7.370670377E-01  1.389294372E+02  1.389406471E+02  0.000000000E+00  0.00000E+00  9.000E+00
#rwgt            1          18   62971.927316453475                3     3368195           0
<weights>
0.11145E+08
0.11985E+08
0.10207E+08
0.12545E+08
0.95866E+07
0.10579E+08
0.11748E+08
0.11160E+08
0.11130E+08
0.10783E+08
0.10757E+08
0.10974E+08
0.10943E+08
0.10792E+08
0.10771E+08
0.11192E+08
0.11274E+08
0.11380E+08
0.12004E+08
0.11864E+08
0.11373E+08
0.11559E+08
0.11601E+08
0.12349E+08
0.11112E+08
0.11023E+08
0.15360E+08
0.11395E+08
0.11598E+08
0.11545E+08
0.11595E+08
0.11220E+08
0.11202E+08
0.11139E+08
0.11184E+08
0.11199E+08
0.11113E+08
0.11218E+08
0.10998E+08
0.11189E+08
0.11107E+08
0.11202E+08
0.11085E+08
0.11565E+08
0.10763E+08
</weights>
</event>
<event>
      6  10001 -1.11453E+07  8.94427E-01 -1.00000E+00  2.33146E-01
       2    -1     0     0   501     0  0.000000000E+00  0.000000000E+00  1.363826214E+03  1.363826214E+03  0.000000000E+00  0.00000E+00  9.000E+00
      21    -1     0     0   502   501  0.000000000E+00  0.000000000E+00 -6.311273290E-03  6.311273290E-03  0.000000000E+00  0.00000E+00  9.000E+00
      23     2     1     2     0     0 -2.321305725E+00 -8.933900249E-01  9.863510314E+02  9.863554591E+02  1.596278057E+00  0.00000E+00  9.000E+00
      11     1     3     3     0     0  9.772574112E-02  2.185719345E-01  4.262939428E+01  4.263006663E+01  5.110000000E-04  0.00000E+00  9.000E+00
     -11     1     3     3     0     0 -2.419031466E+00 -1.111961959E+00  9.437216370E+02  9.437253925E+02  5.110000000E-04  0.00000E+00  9.000E+00
       2     1     1     2   502     0  2.321305725E+00  8.933900249E-01  3.774688711E+02  3.774770659E+02  0.000000000E+00  0.00000E+00  9.000E+00
#rwgt            1          24  -12796159.605646385                3     3375224           0
<weights>
-.11145E+08
-.10891E+08
-.11277E+08
-.13244E+08
-.90362E+07
-.91654E+07
-.13909E+08
-.11181E+08
-.11110E+08
-.10841E+08
-.10840E+08
-.10968E+08
-.11021E+08
-.10862E+08
-.10849E+08
-.11223E+08
-.11197E+08
-.11437E+08
-.11471E+08
-.11461E+08
-.11415E+08
-.11470E+08
-.11494E+08
-.11370E+08
-.11328E+08
-.11282E+08
-.11290E+08
-.11408E+08
-.11348E+08
-.11445E+08
-.11482E+08
-.11175E+08
-.11216E+08
-.11140E+08
-.11172E+08
-.11217E+08
-.11092E+08
-.11099E+08
-.11117E+08
-.11158E+08
-.11135E+08
-.11180E+08
-.11109E+08
-.11479E+08
-.10837E+08
</weights>
</event>
<event>
      6  10001 -1.11453E+07  8.94427E-01 -1.00000E+00  2.41816E-01
       2    -1     0     0   501     0  0.000000000E+00  0.000000000E+00  2.491972993E+02  2.491972993E+02  0.000000000E+00  0.00000E+00  9.000E+00
      -2    -1     0     0     0   502  0.000000000E+00  0.000000000E+00 -3.991041754E-03  3.991041754E-03  0.000000000E+00  0.00000E+00  9.000E+00
      23     2     1     2     0     0  6.888099870E-03 -2.689253900E-01  2.076808136E+02  2.076879240E+02  1.697377207E+00  0.00000E+00  9.000E+00
      11     1     3     3     0     0 -4.289185367E-01 -8.527972562E-01  9.643051809E+01  9.643524280E+01  5.110000000E-04  0.00000E+00  9.000E+00
     -11     1     3     3     0     0  4.358066366E-01  5.838718662E-01  1.112502955E+02  1.112526812E+02  5.110000000E-04  0.00000E+00  9.000E+00
      21     1     1     2   501   502 -6.888099870E-03  2.689253900E-01  4.151249470E+01  4.151336634E+01  6.743495762E-07  0.00000E+00  9.000E+00
#rwgt            1          23  -2945572.8074991815                3     3379022           0
<weights>
-.11145E+08
-.11902E+08
-.10141E+08
-.14474E+08
-.81257E+07
-.91643E+07
-.13909E+08
-.11156E+08
-.11140E+08
-.10816E+08
-.10802E+08
-.10960E+08
-.10998E+08
-.10832E+08
-.10813E+08
-.11225E+08
-.11220E+08
-.11474E+08
-.11516E+08
-.11503E+08
-.11450E+08
-.11515E+08
-.11532E+08
-.11429E+08
-.11327E+08
-.11292E+08
-.11365E+08
-.11448E+08
-.11380E+08
-.11495E+08
-.11527E+08
-.11186E+08
-.11219E+08
-.11137E+08
-.11180E+08
-.11197E+08
-.11114E+08
-.11147E+08
-.11069E+08
-.11170E+08
-.11124E+08
-.11188E+08
-.11100E+08
-.11517E+08
-.10804E+08
</weights>
</event>
<event>
      6  10001 -1.11453E+07  8.94427E-01 -1.00000E+00  3.69721E-01
      21    -1     0     0   502   501  0.000000000E+00  0.000000000E+00  6.623851168E-03  6.623851168E-03  0.000000000E+00  0.00000E+00  9.000E+00
       2    -1     0     0   501     0  0.000000000E+00  0.000000000E+00 -3.105194307E+02  3.105194307E+02  0.000000000E+00  0.00000E+00  9.000E+00
      23     2     1     2     0     0  8.130258831E-01  6.942943582E-01 -1.570966243E+02  1.571061467E+02  1.359746381E+00  0.00000E+00  9.000E+00
      11     1     3     3     0     0 -1.785531987E-01  4.073989810E-01 -1.731979890E+01  1.732550979E+01  5.110000000E-04  0.00000E+00  9.000E+00
     -11     1     3     3     0     0  9.915790817E-01  2.868953772E-01 -1.397768254E+02  1.397806370E+02  5.110000000E-04  0.00000E+00  9.000E+00
       2     1     1     2   502     0 -8.130258831E-01 -6.942943582E-01 -1.534161825E+02  1.534199078E+02  0.000000000E+00  0.00000E+00  9.000E+00
#rwgt            1          17  -9782859.6284225490                3     3381485           0
<weights>
-.11145E+08
-.12557E+08
-.95155E+07
-.15261E+08
-.76243E+07
-.91702E+07
-.13910E+08
-.11127E+08
-.11163E+08
-.11170E+08
-.11161E+08
-.11047E+08
-.11262E+08
-.11164E+08
-.11162E+08
-.11335E+08
-.10858E+08
-.11347E+08
-.10824E+08
-.10784E+08
-.11369E+08
-.11104E+08
-.11158E+08
-.11123E+08
-.11119E+08
-.11215E+08
-.11095E+08
-.10903E+08
-.11374E+08
-.11087E+08
-.11162E+08
-.11030E+08
-.11256E+08
-.11352E+08
-.10880E+08
-.11124E+08
-.11163E+08
-.11165E+08
-.11127E+08
-.11203E+08
-.11091E+08
-.11150E+08
-.11140E+08
-.11124E+08
-.11166E+08
</weights>
</event>
<event>
      6  10001 -1.11453E+07  8.94427E-01 -1.00000E+00  3.19012E-01
      21    -1     0     0   502   501  0.000000000E+00  0.000000000E+00  4.585114446E+02  4.585114446E+02  0.000000000E+00  0.00000E+00  9.000E+00
      -4    -1     0     0     0   502  0.000000000E+00  0.000000000E+00 -1.823222486E-02  1.823222486E-02  0.000000000E+00  0.00000E+00  9.000E+00
      23     2     1     2     0     0  8.760634795E-01 -1.482504346E+00  3.667941612E+02  3.668144584E+02  3.453242864E+00  0.00000E+00  9.000E+00
      11     1     3     3     0     0  6.269159045E-01 -1.230604199E+00  3.632513225E+02  3.632539479E+02  5.110000000E-04  0.00000E+00  9.000E+00
     -11     1     3     3     0     0  2.491475750E-01 -2.519001477E-01  3.542838709E+00  3.560510438E+00  5.110000000E-04  0.00000E+00  9.000E+00
      -4     1     1     2     0   501 -8.760634795E-01  1.482504346E+00  9.169905119E+01  9.171521845E+01  0.000000000E+00  0.00000E+00  9.000E+00
#rwgt            1          12  -71579.614055162849                3     3382860           0
<weights>
-.11145E+08
-.11927E+08
-.99746E+07
-.14507E+08
-.79925E+07
-.91633E+07
-.13909E+08
-.11171E+08
-.11120E+08
-.10814E+08
-.10800E+08
-.10958E+08
-.11000E+08
-.10830E+08
-.10811E+08
-.11228E+08
-.11217E+08
-.11476E+08
-.11517E+08
-.11505E+08
-.11451E+08
-.11517E+08
-.11534E+08
-.11423E+08
-.11333E+08
-.11293E+08
-.11347E+08
-.11449E+08
-.11382E+08
-.11496E+08
-.11530E+08
-.11188E+08
-.11217E+08
-.11136E+08
-.11181E+08
-.11208E+08
-.11102E+08
-.11148E+08
-.11067E+08
-.11171E+08
-.11124E+08
-.11187E+08
-.11102E+08
-.11519E+08
-.10802E+08
</weights>
</event>
<event>
      7  10001  1.11453E+07  5.34109E+00 -1.00000E+00  2.32214E-01
      -2    -1     0     0     0   502  0.000000000E+00  0.000000000E+00  1.822945069E+02  1.822945069E+02  0.000000000E+00  0.00000E+00  9.000E+00
      21    -1     0     0   502   501  0.000000000E+00  0.000000000E+00 -5.080916562E-02  5.080916562E-02  0.000000000E+00  0.00000E+00  9.000E+00
      23     2     1     2     0     0 -5.903262221E-01  1.293193832E-01  1.655439305E+02  1.655495378E+02  1.221210109E+00  0.00000E+00  9.000E+00
      11     1     3     3     0     0 -5.114000356E-01 -4.019415139E-01  1.292173748E+02  1.292190119E+02  5.110000000E-04  0.00000E+00  9.000E+00
     -11     1     3     3     0     0 -7.892618650E-02  5.312608971E-01  3.632655568E+01  3.633052594E+01  5.110000000E-04  0.00000E+00  9.000E+00
      -2     1     1     2     0   511  8.772619784E-04 -1.944580039E-01  1.489106726E+01  1.489233692E+01  0.000000000E+00  0.00000E+00  9.000E+00
      21     1     1     2   511   501  5.894489601E-01  6.513862065E-02  1.808699971E+00  1.903441279E+00  1.460009660E-07  0.00000E+00  9.000E+00
#rwgt            2         101   1688859.2285366631                3     3386362           0
<weights>
0.11148E+08
0.10966E+08
0.11054E+08
0.13373E+08
0.88590E+07
0.91411E+07
0.13910E+08
0.11173E+08
0.11123E+08
0.10820E+08
0.10807E+08
0.10962E+08
0.11004E+08
0.10836E+08
0.10818E+08
0.11229E+08
0.11217E+08
0.11473E+08
0.11515E+08
0.11503E+08
0.11449E+08
0.11514E+08
0.11532E+08
0.11422E+08
0.11333E+08
0.11292E+08
0.11355E+08
0.11446E+08
0.11381E+08
0.11492E+08
0.11526E+08
0.11189E+08
0.11219E+08
0.11139E+08
0.11182E+08
0.11210E+08
0.11105E+08
0.11145E+08
0.11076E+08
0.11171E+08
0.11128E+08
0.11189E+08
0.11105E+08
0.11517E+08
0.10808E+08
</weights>
</event>
<event>
      7  10001  1.11453E+07  4.60194E+00 -1.00000E+00  2.47424E-01
      -2    -1     0     0     0   502  0.000000000E+00  0.000000000E+00  5.022693560E-02  5.022693560E-02  0.000000000E+00  0.00000E+00  9.000E+00
      21    -1     0     0   502   501  0.000000000E+00  0.000000000E+00 -2.285318573E+02  2.285318573E+02  0.000000000E+00  0.00000E+00  9.000E+00
      23     2     1     2     0     0  6.933373073E-01  1.701241661E+00 -7.077283953E+01  7.082867796E+01  2.128817946E+00  0.00000E+00  9.000E+00
      11     1     3     3     0     0  1.444829136E+00  9.624091607E-01 -4.819586849E+01  4.822712413E+01  5.110000000E-04  0.00000E+00  9.000E+00
     -11     1     3     3     0     0 -7.514918282E-01  7.388325004E-01 -2.257697105E+01  2.260155383E+01  5.110000000E-04  0.00000E+00  9.000E+00
      -2     1     1     2     0   512 -1.973712868E-01  7.981643276E-01 -7.702470358E+01  7.702909180E+01  0.000000000E+00  0.00000E+00  9.000E+00
      21     1     1     2   512   501 -4.959660205E-01 -2.499405989E+00 -8.068408726E+01  8.072431449E+01  9.536743164E-07  0.00000E+00  9.000E+00
#rwgt            1           7   375413.19265851931                3     3387753           0
<weights>
0.11145E+08
0.11077E+08
0.11185E+08
0.12053E+08
0.10082E+08
0.10211E+08
0.12313E+08
0.11054E+08
0.11231E+08
0.11447E+08
0.11360E+08
0.11137E+08
0.11444E+08
0.11450E+08
0.11412E+08
0.11104E+08
0.11030E+08
0.10892E+08
0.10789E+08
0.10788E+08
0.10916E+08
0.10870E+08
0.10757E+08
0.11101E+08
0.10793E+08
0.10913E+08
0.11228E+08
0.10932E+08
0.10950E+08
0.10898E+08
0.10846E+08
0.11154E+08
0.11044E+08
0.11101E+08
0.11180E+08
0.11103E+08
0.11174E+08
0.11222E+08
0.11102E+08
0.10989E+08
0.11292E+08
0.11056E+08
0.11241E+08
0.10845E+08
0.11411E+08
</weights>
</event>
<event>
      7  10001  1.11453E+07  8.94427E-01 -1.00000E+00  6.07649E-01
      -1    -1     0     0     0   502  0.000000000E+00  0.000000000E+00  5.626409626E-01  5.626409626E-01  0.000000000E+00  0.00000E+00  9.000E+00
      -4    -1     0     0     0   501  0.000000000E+00  0.000000000E+00 -2.398908728E+01  2.398908728E+01  0.000000000E+00  0.00000E+00  9.000E+00
      23     2     1     2     0     0  7.839680042E-02  3.320421149E-01 -1.125585729E+01  1.130856447E+01  1.035813208E+00  0.00000E+00  9.000E+00
      11     1     3     3     0     0 -7.491908397E-04  5.680136047E-01 -3.279642348E+00  3.328467246E+00  5.110000000E-04  0.00000E+00  9.000E+00
     -11     1     3     3     0     0  7.914599126E-02 -2.359714898E-01 -7.976214941E+00  7.980097222E+00  5.110000000E-04  0.00000E+00  9.000E+00
      -1     1     1     2     0   501  6.510499598E-01 -1.365540147E-01  3.141080391E-01  7.356472723E-01  0.000000000E+00  0.00000E+00  9.000E+00
      -4     1     1     2     0   502 -7.294467602E-01 -1.954881002E-01 -1.248469707E+01  1.250751650E+01  0.000000000E+00  0.00000E+00  9.000E+00
#rwgt            2         124   20424.863805444391                3     3419434           0
<weights>
0.11145E+08
0.11382E+08
0.10683E+08
0.13834E+08
0.85599E+07
0.91702E+07
0.13910E+08
0.11244E+08
0.11046E+08
0.10856E+08
0.10930E+08
0.10948E+08
0.11100E+08
0.10912E+08
0.10931E+08
0.11199E+08
0.11162E+08
0.11347E+08
0.11375E+08
0.11370E+08
0.11335E+08
0.11354E+08
0.11413E+08
0.11199E+08
0.11384E+08
0.11347E+08
0.11044E+08
0.11333E+08
0.11216E+08
0.11297E+08
0.11368E+08
0.11111E+08
0.11247E+08
0.11162E+08
0.11135E+08
0.11313E+08
0.10996E+08
0.10829E+08
0.11409E+08
0.11104E+08
0.11184E+08
0.11141E+08
0.11150E+08
0.11403E+08
0.10897E+08
</weights>
</event>
<event>
      6  10001 -1.11453E+07  8.94427E-01 -1.00000E+00  5.99526E-01
      -2    -1     0     0     0   502  0.000000000E+00  0.000000000E+00  2.453957247E-02  2.453957247E-02  0.000000000E+00  0.00000E+00  9.000E+00
       2    -1     0     0   501     0  0.000000000E+00  0.000000000E+00 -6.257162431E+01  6.257162431E+01  0.000000000E+00  0.00000E+00  9.000E+00
      23     2     1     2     0     0  4.831155804E-01  3.991209552E-01 -5.014563746E+01  5.017889394E+01  1.715733883E+00  0.00000E+00  9.000E+00
      11     1     3     3     0     0  8.380549942E-01  6.251244804E-02 -1.169918303E+01  1.172932768E+01  5.110000000E-04  0.00000E+00  9.000E+00
     -11     1     3     3     0     0 -3.549394138E-01  3.366085072E-01 -3.844645443E+01  3.844956626E+01  5.110000000E-04  0.00000E+00  9.000E+00
      21     1     1     2   501   502 -4.831155804E-01 -3.991209552E-01 -1.240144728E+01  1.241726994E+01  0.000000000E+00  0.00000E+00  9.000E+00
#rwgt            1           8  -3982246.6521998113                3     3419666           0
<weights>
-.11145E+08
-.12861E+08
-.93492E+07
-.15631E+08
-.74910E+07
-.91702E+07
-.13910E+08
-.11176E+08
-.11114E+08
-.11104E+08
-.11137E+08
-.11159E+08
-.11076E+08
-.11132E+08
-.11137E+08
-.11123E+08
-.11151E+08
-.11066E+08
-.11255E+08
-.11267E+08
-.11058E+08
-.11152E+08
-.11143E+08
-.11236E+08
-.11065E+08
-.11088E+08
-.11169E+08
-.11282E+08
-.10933E+08
-.11155E+08
-.11132E+08
-.11140E+08
-.11150E+08
-.11069E+08
-.11246E+08
-.11125E+08
-.11162E+08
-.11062E+08
-.11240E+08
-.11082E+08
-.11196E+08
-.11204E+08
-.11083E+08
-.11160E+08
-.11125E+08
</weights>
</event>
<event>
      6  10001 -1.11453E+07  8.94427E-01 -1.00000E+00  1.66794E-01
       2    -1     0     0   501     0  0.000000000E+00  0.000000000E+00  1.945644883E+02  1.945644883E+02  0.000000000E+00  0.00000E+00  9.000E+00
      21    -1     0     0   502   501  0.000000000E+00  0.000000000E+00 -4.851600029E-03  4.851600029E-03  0.000000000E+00  0.00000E+00  9.000E+00
      23     2     1     2     0     0 -7.326686299E-02 -3.234433052E-01  1.490153799E+02  1.490238757E+02  1.556307226E+00  0.00000E+00  9.000E+00
      11     1     3     3     0     0  2.237349741E-01 -9.073935636E-01  8.435232283E+01  8.435749989E+01  5.110000000E-04  0.00000E+00  9.000E+00
     -11     1     3     3     0     0 -2.970018371E-01  5.839502584E-01  6.466305712E+01  6.466637584E+01  5.110000000E-04  0.00000E+00  9.000E+00
       2     1     1     2   502     0  7.326686299E-02  3.234433052E-01  4.554425672E+01  4.554546414E+01  0.000000000E+00  0.00000E+00  9.000E+00
#rwgt            1          24  -7414196.3684649291                3     3420665           0
<weights>
-.11145E+08
-.12084E+08
-.10026E+08
-.14695E+08
-.80340E+07
-.91650E+07
-.13909E+08
-.11169E+08
-.11123E+08
-.10823E+08
-.10812E+08
-.10962E+08
-.11005E+08
-.10840E+08
-.10823E+08
-.11226E+08
-.11212E+08
-.11463E+08
-.11507E+08
-.11494E+08
-.11440E+08
-.11503E+08
-.11522E+08
-.11418E+08
-.11327E+08
-.11286E+08
-.11371E+08
-.11436E+08
-.11373E+08
-.11481E+08
-.11515E+08
-.11184E+08
-.11217E+08
-.11138E+08
-.11178E+08
-.11207E+08
-.11103E+08
-.11134E+08
-.11082E+08
-.11167E+08
-.11127E+08
-.11186E+08
-.11103E+08
-.11507E+08
-.10813E+08
</weights>
</event>
<event>
      7  10001  1.11453E+07  4.25941E+00 -1.00000E+00  2.54248E-01
       1    -1     0     0   502     0  0.000000000E+00  0.000000000E+00  1.159823154E+02  1.159823154E+02  0.000000000E+00  0.00000E+00  9.000E+00
      -2    -1     0     0     0   502  0.000000000E+00  0.000000000E+00 -3.466335543E-01  3.466335543E-01  0.000000000E+00  0.00000E+00  9.000E+00
      23     2     1     2     0     0  1.586277967E+00  9.788945422E-01  7.889304033E+00  8.304643942E+00  1.803186226E+00  0.00000E+00  9.000E+00
      11     1     3     3     0     0  1.331323258E+00 -2.160931312E-01  4.684909107E+00  4.875191428E+00  5.110000000E-04  0.00000E+00  9.000E+00
     -11     1     3     3     0     0  2.549547094E-01  1.194987673E+00  3.204394926E+00  3.429452514E+00  5.110000000E-04  0.00000E+00  9.000E+00
      -2     1     1     2     0   501 -8.949980789E-01  3.224041525E+00  3.753129074E+01  3.768014397E+01  0.000000000E+00  0.00000E+00  9.000E+00
       1     1     1     2   501     0 -6.912798884E-01 -4.202936068E+00  7.021508704E+01  7.034416101E+01  0.000000000E+00  0.00000E+00  9.000E+00
#rwgt            1          14   875530.87223920657                3     3422137           0
<weights>
0.11145E+08
0.12125E+08
0.10103E+08
0.12581E+08
0.95315E+07
0.10641E+08
0.11652E+08
0.10972E+08
0.11365E+08
0.10812E+08
0.10773E+08
0.10971E+08
0.10962E+08
0.10820E+08
0.10788E+08
0.11189E+08
0.11290E+08
0.11512E+08
0.11511E+08
0.11494E+08
0.11490E+08
0.11549E+08
0.11545E+08
0.11472E+08
0.11293E+08
0.11346E+08
0.11232E+08
0.11501E+08
0.11353E+08
0.11537E+08
0.11546E+08
0.11167E+08
0.11247E+08
0.11139E+08
0.11184E+08
0.11044E+08
0.11284E+08
0.11189E+08
0.11031E+08
0.11175E+08
0.11118E+08
0.11215E+08
0.11072E+08
0.11537E+08
0.10788E+08
</weights>
</event>
<event>
      6  10001 -1.11453E+07  8.94427E-01 -1.00000E+00  5.33498E-01
      21    -1     0     0   502   501  0.000000000E+00  0.000000000E+00  2.437731304E-02  2.437731304E-02  0.000000000E+00  0.00000E+00  9.000E+00
       3    -1     0     0   501     0  0.000000000E+00  0.000000000E+00 -6.127262502E+01  6.127262502E+01  0.000000000E+00  0.00000E+00  9.000E+00
      23     2     1     2     0     0  4.926176390E-01 -3.735945998E-01 -4.084449212E+01  4.088388187E+01  1.684344087E+00  0.00000E+00  9.000E+00
      11     1     3     3     0     0  4.007551377E-02  4.062883858E-01 -2.891406047E+00  2.920086555E+00  5.110000000E-04  0.00000E+00  9.000E+00
     -11     1     3     3     0     0  4.525421252E-01 -7.798829856E-01 -3.795308607E+01  3.796379531E+01  5.110000000E-04  0.00000E+00  9.000E+00
       3     1     1     2   502     0 -4.926176390E-01  3.735945998E-01 -2.040375559E+01  2.041312047E+01  0.000000000E+00  0.00000E+00  9.000E+00
#rwgt            1          18  -726647.78474629566                3     3429144           0
<weights>
-.11145E+08
-.12588E+08
-.95684E+07
-.15299E+08
-.76667E+07
-.91702E+07
-.13910E+08
-.11164E+08
-.11125E+08
-.11012E+08
-.11168E+08
-.11317E+08
-.10854E+08
-.11116E+08
-.11109E+08
-.12183E+08
-.97320E+07
-.11439E+08
-.10740E+08
-.10785E+08
-.11354E+08
-.11123E+08
-.11203E+08
-.10574E+08
-.11561E+08
-.10135E+08
-.11182E+08
-.10326E+08
-.12119E+08
-.11040E+08
-.11221E+08
-.11203E+08
-.11092E+08
-.11223E+08
-.11075E+08
-.11239E+08
-.11058E+08
-.10934E+08
-.11383E+08
-.11101E+08
-.11176E+08
-.11238E+08
-.11045E+08
-.11187E+08
-.11094E+08
</weights>
</event>
<event>
      6  10001 -1.11453E+07  8.94427E-01 -1.00000E+00  5.29635E-01
      21    -1     0     0   502   501  0.000000000E+00  0.000000000E+00  3.044125357E-03  3.044125357E-03  0.000000000E+00  0.00000E+00  9.000E+00
       2    -1     0     0   501     0  0.000000000E+00  0.000000000E+00 -3.941392919E+02  3.941392919E+02  0.000000000E+00  0.00000E+00  9.000E+00
      23     2     1     2     0     0  2.480425903E-01 -5.807872422E-01 -3.186977771E+02  3.187012219E+02  1.340480948E+00  0.00000E+00  9.000E+00
      11     1     3     3     0     0  5.642169532E-01 -4.610499169E-01 -2.962765691E+02  2.962774651E+02  5.110000000E-04  0.00000E+00  9.000E+00
     -11     1     3     3     0     0 -3.161743629E-01 -1.197373253E-01 -2.242120797E+01  2.242375683E+01  5.110000000E-04  0.00000E+00  9.000E+00
       2     1     1     2   502     0 -2.480425903E-01  5.807872422E-01 -7.543847064E+01  7.544111406E+01  0.000000000E+00  0.00000E+00  9.000E+00
#rwgt            1          17  -11373112.595450126                3     3429481           0
<weights>
-.11145E+08
-.11558E+08
-.10586E+08
-.14047E+08
-.84820E+07
-.91702E+07
-.13910E+08
-.11128E+08
-.11162E+08
-.11167E+08
-.11155E+08
-.11012E+08
-.11299E+08
-.11159E+08
-.11156E+08
-.11318E+08
-.10885E+08
-.11420E+08
-.10741E+08
-.10687E+08
-.11451E+08
-.11106E+08
-.11167E+08
-.11079E+08
-.11168E+08
-.11285E+08
-.11054E+08
-.10815E+08
-.11491E+08
-.11076E+08
-.11178E+08
-.11021E+08
-.11266E+08
-.11443E+08
-.10773E+08
-.11109E+08
-.11177E+08
-.11155E+08
-.11139E+08
-.11232E+08
-.11067E+08
-.11140E+08
-.11150E+08
-.11129E+08
-.11162E+08
</weights>
</event>
<event>
      7  10001  1.11453E+07  2.27722E+00 -1.00000E+00  3.31468E-01
      21    -1     0     0   511   501  0.000000000E+00  0.000000000E+00  1.192932181E+02  1.192932181E+02  0.000000000E+00  0.00000E+00  9.000E+00
       2    -1     0     0   501     0  0.000000000E+00  0.000000000E+00 -5.865494756E+01  5.865494756E+01  0.000000000E+00  0.00000E+00  9.000E+00
      23     2     1     2     0     0 -9.534797407E-01 -7.490292522E-01 -5.424712425E+01  5.427478073E+01  1.237402691E+00  0.00000E+00  9.000E+00
      11     1     3     3     0     0 -1.559145689E-01 -4.644698315E-01 -3.970451602E+01  3.970753876E+01  5.110000000E-04  0.00000E+00  9.000E+00
     -11     1     3     3     0     0 -7.975651718E-01 -2.845594207E-01 -1.454260822E+01  1.456724197E+01  5.110000000E-04  0.00000E+00  9.000E+00
       2     1     1     2   502     0  1.002565629E+00 -1.527666107E+00 -4.192667370E+00  4.573550180E+00  0.000000000E+00  0.00000E+00  9.000E+00
      21     1     1     2   511   502 -4.908588825E-02  2.276695359E+00  1.190780622E+02  1.190998348E+02  0.000000000E+00  0.00000E+00  9.000E+00
#rwgt            1          17   2399343.6692648707                3     3431328           0
<weights>
0.11145E+08
0.13522E+08
0.85887E+07
0.12862E+08
0.92085E+07
0.11583E+08
0.10206E+08
0.11204E+08
0.11087E+08
0.11039E+08
0.11091E+08
0.11185E+08
0.10979E+08
0.11076E+08
0.11086E+08
0.11045E+08
0.11285E+08
0.11026E+08
0.11440E+08
0.11463E+08
0.11008E+08
0.11210E+08
0.11199E+08
0.11283E+08
0.11101E+08
0.11099E+08
0.11172E+08
0.11433E+08
0.10823E+08
0.11216E+08
0.11169E+08
0.11169E+08
0.11137E+08
0.11004E+08
0.11340E+08
0.11091E+08
0.11197E+08
0.11015E+08
0.11275E+08
0.11062E+08
0.11211E+08
0.11241E+08
0.11043E+08
0.11218E+08
0.11071E+08
</weights>
</event>
<event>
      7  10001 -1.11453E+07  1.35063E+00 -1.00000E+00  4.58816E-01
      -2    -1     0     0     0   502  0.000000000E+00  0.000000000E+00  6.649763547E+00  6.649763547E+00  0.000000000E+00  0.00000E+00  9.000E+00
      21    -1     0     0   511   501  0.000000000E+00  0.000000000E+00 -5.747872889E+01  5.747872889E+01  0.000000000E+00  0.00000E+00  9.000E+00
      23     2     1     2     0     0  3.185309733E-01  3.955067387E-01  5.549675261E+00  5.685978961E+00  1.128527219E+00  0.00000E+00  9.000E+00
      11     1     3     3     0     0  1.672594743E-01 -3.140771957E-01  3.369789663E+00  3.388525173E+00  5.110000000E-04  0.00000E+00  9.000E+00
     -11     1     3     3     0     0  1.512714990E-01  7.095839344E-01  2.179885598E+00  2.297453788E+00  5.110000000E-04  0.00000E+00  9.000E+00
      -2     1     1     2     0   501  6.472243994E-01  5.486914088E-01  8.481910917E-01  1.199745729E+00  0.000000000E+00  0.00000E+00  9.000E+00
      21     1     1     2   511   502 -9.657553727E-01 -9.441981475E-01 -5.722683169E+01  5.724276775E+01  9.536743164E-07  0.00000E+00  9.000E+00
#rwgt            1           7  -250560.94072506187                3     3441638           0
<weights>
-.11145E+08
-.34198E+07
-.16880E+08
-.27079E+08
-.46497E+06
0.54071E+07
-.36287E+08
-.11296E+08
-.10979E+08
-.11935E+08
-.12164E+08
-.11405E+08
-.11775E+08
-.12023E+08
-.12148E+08
-.11038E+08
-.10619E+08
-.10153E+08
-.99089E+07
-.99502E+07
-.10228E+08
-.99377E+07
-.10021E+08
-.99152E+07
-.10886E+08
-.10820E+08
-.97852E+07
-.10091E+08
-.10277E+08
-.98744E+07
-.99325E+07
-.10869E+08
-.11051E+08
-.11173E+08
-.11011E+08
-.11303E+08
-.10934E+08
-.10203E+08
-.12117E+08
-.10805E+08
-.11445E+08
-.10976E+08
-.11324E+08
-.10071E+08
-.12094E+08
</weights>
</event>
<event>
      6  10001 -1.11453E+07  8.94427E-01 -1.00000E+00  3.33595E-01
      21    -1     0     0   502   501  0.000000000E+00  0.000000000E+00  1.741504185E-02  1.741504185E-02  0.000000000E+00  0.00000E+00  9.000E+00
      -4    -1     0     0     0   502  0.000000000E+00  0.000000000E+00 -1.569973906E+02  1.569973906E+02  0.000000000E+00  0.00000E+00  9.000E+00
      23     2     1     2     0     0  6.906541031E-02 -2.462579092E-01 -1.558115932E+02  1.558187579E+02  1.472178190E+00  0.00000E+00  9.000E+00
      11     1     3     3     0     0 -3.953163197E-01 -4.005719714E-01 -1.358558318E+02  1.358569975E+02  5.110000000E-04  0.00000E+00  9.000E+00
     -11     1     3     3     0     0  4.643817300E-01  1.543140622E-01 -1.995576139E+01  1.996176035E+01  5.110000000E-04  0.00000E+00  9.000E+00
      -4     1     1     2     0   501 -6.906541031E-02  2.462579092E-01 -1.168382306E+00  1.196047743E+00  0.000000000E+00  0.00000E+00  9.000E+00
#rwgt            1          12  -3001632.0432731356                3     3461930           0
<weights>
-.11145E+08
-.11812E+08
-.10373E+08
-.14356E+08
-.83114E+07
-.91702E+07
-.13910E+08
-.11048E+08
-.11238E+08
-.11468E+08
-.11363E+08
-.11113E+08
-.11489E+08
-.11458E+08
-.11425E+08
-.11101E+08
-.11030E+08
-.10880E+08
-.10777E+08
-.10777E+08
-.10903E+08
-.10854E+08
-.10747E+08
-.11106E+08
-.10770E+08
-.10885E+08
-.11242E+08
-.10921E+08
-.10944E+08
-.10883E+08
-.10830E+08
-.11165E+08
-.11029E+08
-.11104E+08
-.11177E+08
-.11103E+08
-.11175E+08
-.11223E+08
-.11119E+08
-.10958E+08
-.11321E+08
-.11040E+08
-.11258E+08
-.10832E+08
-.11424E+08
</weights>
</event>
<event>
      6  10001 -1.11453E+07  8.94427E-01 -1.00000E+00  5.16537E-01
       2    -1     0     0   501     0  0.000000000E+00  0.000000000E+00  2.814279179E+02  2.814279179E+02  0.000000000E+00  0.00000E+00  9.000E+00
      21    -1     0     0   502   501  0.000000000E+00  0.000000000E+00 -4.857165011E-03  4.857165011E-03  0.000000000E+00  0.00000E+00  9.000E+00
      23     2     1     2     0     0 -3.083474123E-01 -2.422429137E-01  2.675889793E+02  2.675931374E+02  1.439310837E+00  0.00000E+00  9.000E+00
      11     1     3     3     0     0 -6.360468229E-01 -4.135942420E-01  7.570033869E+01  7.570414053E+01  5.110000000E-04  0.00000E+00  9.000E+00
     -11     1     3     3     0     0  3.276994106E-01  1.713513284E-01  1.918886406E+02  1.918889969E+02  5.110000000E-04  0.00000E+00  9.000E+00
       2     1     1     2   502     0  3.083474123E-01  2.422429137E-01  1.383408150E+01  1.383963767E+01  0.000000000E+00  0.00000E+00  9.000E+00
#rwgt            1          24  -11343735.482609015                3     3463252           0
<weights>
-.11145E+08
-.12096E+08
-.10021E+08
-.14704E+08
-.80297E+07
-.91687E+07
-.13910E+08
-.11173E+08
-.11118E+08
-.10830E+08
-.10823E+08
-.10965E+08
-.11011E+08
-.10849E+08
-.10833E+08
-.11225E+08
-.11206E+08
-.11452E+08
-.11494E+08
-.11482E+08
-.11430E+08
-.11490E+08
-.11511E+08
-.11401E+08
-.11325E+08
-.11281E+08
-.11339E+08
-.11424E+08
-.11365E+08
-.11467E+08
-.11503E+08
-.11180E+08
-.11217E+08
-.11139E+08
-.11175E+08
-.11209E+08
-.11100E+08
-.11121E+08
-.11095E+08
-.11163E+08
-.11130E+08
-.11184E+08
-.11105E+08
-.11496E+08
-.10822E+08
</weights>
</event>
<event>
      7  10001  1.11453E+07  8.94427E-01 -1.00000E+00  6.07649E-01
       2    -1     0     0   501     0  0.000000000E+00  0.000000000E+00  2.314074594E+01  2.314074594E+01  0.000000000E+00  0.00000E+00  9.000E+00
      21    -1     0     0   511   502  0.000000000E+00  0.000000000E+00 -5.154862304E-01  5.154862304E-01  0.000000000E+00  0.00000E+00  9.000E+00
      23     2     1     2     0     0 -2.623951831E-01  3.120208112E-01  2.259819660E+01  2.263733969E+01  1.266669080E+00  0.00000E+00  9.000E+00
      11     1     3     3     0     0 -3.955752984E-03 -2.040996540E-01  6.445101564E-01  6.760665052E-01  5.110000000E-04  0.00000E+00  9.000E+00
     -11     1     3     3     0     0 -2.584394301E-01  5.161204652E-01  2.195368644E+01  2.196127319E+01  5.110000000E-04  0.00000E+00  9.000E+00
      21     1     1     2   501   502  5.106519414E-01 -2.621016258E-01 -2.651103515E-01  6.322548267E-01  1.733361203E-07  0.00000E+00  9.000E+00
       2     1     1     2   511     0 -2.482567583E-01 -4.991918539E-02  2.921734671E-01  3.866376572E-01  0.000000000E+00  0.00000E+00  9.000E+00
#rwgt            2         249   1616764.2980957397                3     3465406           0
<weights>
0.11145E+08
0.11118E+08
0.10936E+08
0.13513E+08
0.87624E+07
0.91702E+07
0.13910E+08
0.11192E+08
0.11096E+08
0.10841E+08
0.10841E+08
0.10966E+08
0.11024E+08
0.10862E+08
0.10850E+08
0.11226E+08
0.11193E+08
0.11440E+08
0.11460E+08
0.11453E+08
0.11417E+08
0.11469E+08
0.11492E+08
0.11346E+08
0.11338E+08
0.11289E+08
0.11203E+08
0.11409E+08
0.11343E+08
0.11444E+08
0.11482E+08
0.11176E+08
0.11215E+08
0.11139E+08
0.11173E+08
0.11225E+08
0.11082E+08
0.11098E+08
0.11119E+08
0.11158E+08
0.11135E+08
0.11179E+08
0.11111E+08
0.11478E+08
0.10838E+08
</weights>
</event>
<event>
      7  10001  1.11453E+07  5.99660E+00 -1.00000E+00  2.24417E-01
       2    -1     0     0   501     0  0.000000000E+00  0.000000000E+00  5.255631618E+01  5.255631618E+01  0.000000000E+00  0.00000E+00  9.000E+00
      21    -1     0     0   502   501  0.000000000E+00  0.000000000E+00 -5.574332429E-01  5.574332429E-01  0.000000000E+00  0.00000E+00  9.000E+00
      23     2     1     2     0     0 -1.210379007E-01  5.933238425E-01  5.183062025E+01  5.186234615E+01  1.709698676E+00  0.00000E+00  9.000E+00
      11     1     3     3     0     0  7.497223112E-01 -5.001774488E-03  1.922590278E+01  1.924051575E+01  5.110000000E-04  0.00000E+00  9.000E+00
     -11     1     3     3     0     0 -8.707602119E-01  5.983256170E-01  3.260471747E+01  3.262183039E+01  5.110000000E-04  0.00000E+00  9.000E+00
       2     1     1     2   511     0  1.580655443E-01  6.309666082E-03  5.279799682E-01  5.511690984E-01  0.000000000E+00  0.00000E+00  9.000E+00
      21     1     1     2   502   511 -3.702764358E-02 -5.996335086E-01 -3.597172729E-01  7.002341804E-01  5.671991511E-07  0.00000E+00  9.000E+00
#rwgt            2         248   817156.82986825064                3     3471756           0
<weights>
0.11145E+08
0.10868E+08
0.11232E+08
0.13209E+08
0.89994E+07
0.91702E+07
0.13910E+08
0.11192E+08
0.11096E+08
0.10842E+08
0.10842E+08
0.10967E+08
0.11025E+08
0.10864E+08
0.10851E+08
0.11226E+08
0.11193E+08
0.11439E+08
0.11458E+08
0.11451E+08
0.11416E+08
0.11468E+08
0.11490E+08
0.11343E+08
0.11338E+08
0.11289E+08
0.11199E+08
0.11408E+08
0.11342E+08
0.11442E+08
0.11480E+08
0.11175E+08
0.11215E+08
0.11139E+08
0.11173E+08
0.11226E+08
0.11081E+08
0.11096E+08
0.11121E+08
0.11157E+08
0.11136E+08
0.11178E+08
0.11111E+08
0.11477E+08
0.10839E+08
</weights>
</event>
<event>
      7  10001  1.11453E+07  3.46918E+00 -1.00000E+00  2.75232E-01
      21    -1     0     0   502   501  0.000000000E+00  0.000000000E+00  2.233596590E+02  2.233596590E+02  0.000000000E+00  0.00000E+00  9.000E+00
      21    -1     0     0   501   512  0.000000000E+00  0.000000000E+00 -4.092492279E-01  4.092492279E-01  0.000000000E+00  0.00000E+00  9.000E+00
      23     2     1     2     0     0 -2.875960025E+00  4.400420855E-01  8.999413485E+01  9.009076311E+01  2.989399324E+00  0.00000E+00  9.000E+00
      11     1     3     3     0     0 -1.614240478E+00  5.111512119E-01  1.667693505E+01  1.676267314E+01  5.110000000E-04  0.00000E+00  9.000E+00
     -11     1     3     3     0     0 -1.261719547E+00 -7.110912637E-02  7.331719979E+01  7.332808997E+01  5.110000000E-04  0.00000E+00  9.000E+00
       2     1     1     2   502     0  2.595813319E+00  3.017811274E+00  1.241409155E+02  1.242047195E+02  0.000000000E+00  0.00000E+00  9.000E+00
      -2     1     1     2     0   512  2.801467051E-01 -3.457853359E+00  8.815359377E+00  9.473425620E+00  0.000000000E+00  0.00000E+00  9.000E+00
#rwgt            1          17   229796.98498132906                3     3472254           0
<weights>
0.11145E+08
0.11707E+08
0.10495E+08
0.12363E+08
0.97868E+07
0.10505E+08
0.11861E+08
0.10947E+08
0.11418E+08
0.10805E+08
0.10762E+08
0.10970E+08
0.10955E+08
0.10812E+08
0.10777E+08
0.11191E+08
0.11294E+08
0.11515E+08
0.11539E+08
0.11519E+08
0.11493E+08
0.11562E+08
0.11556E+08
0.11510E+08
0.11285E+08
0.11331E+08
0.11339E+08
0.11510E+08
0.11371E+08
0.11552E+08
0.11560E+08
0.11174E+08
0.11245E+08
0.11133E+08
0.11192E+08
0.11047E+08
0.11284E+08
0.11205E+08
0.11017E+08
0.11178E+08
0.11116E+08
0.11214E+08
0.11072E+08
0.11548E+08
0.10778E+08
</weights>
</event>
<event>
      7  10001  1.11453E+07  1.62010E+00 -1.00000E+00  3.98117E-01
       2    -1     0     0   501     0  0.000000000E+00  0.000000000E+00  3.972425258E-01  3.972425258E-01  0.000000000E+00  0.00000E+00  9.000E+00
      21    -1     0     0   511   502  0.000000000E+00  0.000000000E+00 -7.980522244E+01  7.980522244E+01  0.000000000E+00  0.00000E+00  9.000E+00
      23     2     1     2     0     0 -6.081279477E-02 -3.132359347E-01 -1.896892264E+01  1.902279604E+01  1.394606851E+00  0.00000E+00  9.000E+00
      11     1     3     3     0     0 -5.843481641E-01 -5.883374448E-01 -9.942317539E+00  9.976837276E+00  5.110000000E-04  0.00000E+00  9.000E+00
     -11     1     3     3     0     0  5.235353694E-01  2.751015100E-01 -9.026605100E+00  9.045958767E+00  5.110000000E-04  0.00000E+00  9.000E+00
      21     1     1     2   501   502 -1.353040415E+00 -4.778112197E-01 -1.073588597E+00  1.792097766E+00  8.296615426E-08  0.00000E+00  9.000E+00
       2     1     1     2   511     0  1.413853210E+00  7.910471545E-01 -5.936546868E+01  5.938757116E+01  0.000000000E+00  0.00000E+00  9.000E+00
#rwgt            1          23   403486.81181108358                3     3477205           0
<weights>
0.11145E+08
0.11908E+08
0.10345E+08
0.12089E+08
0.98192E+07
0.10765E+08
0.11462E+08
0.11202E+08
0.11084E+08
0.10856E+08
0.10896E+08
0.10998E+08
0.10980E+08
0.10890E+08
0.10897E+08
0.11096E+08
0.11333E+08
0.11413E+08
0.11379E+08
0.11352E+08
0.11411E+08
0.11397E+08
0.11454E+08
0.11303E+08
0.11327E+08
0.11424E+08
0.11002E+08
0.11401E+08
0.11154E+08
0.11361E+08
0.11401E+08
0.11080E+08
0.11289E+08
0.11237E+08
0.11071E+08
0.10954E+08
0.11346E+08
0.10934E+08
0.11271E+08
0.11139E+08
0.11141E+08
0.11267E+08
0.11016E+08
0.11426E+08
0.10882E+08
</weights>
</event>
<event>
      6  10001 -1.11453E+07  8.94427E-01 -1.00000E+00  1.52208E-01
       2    -1     0     0   501     0  0.000000000E+00  0.000000000E+00  1.329716698E+02  1.329716698E+02  0.000000000E+00  0.00000E+00  9.000E+00
      21    -1     0     0   502   501  0.000000000E+00  0.000000000E+00 -1.689057828E-02  1.689057828E-02  0.000000000E+00  0.00000E+00  9.000E+00
      23     2     1     2     0     0  2.842501670E-01 -3.969828819E-01  1.141246554E+02  1.141521075E+02  2.455256595E+00  0.00000E+00  9.000E+00
      11     1     3     3     0     0 -2.623252749E-01 -1.181864871E+00  9.050308248E+01  9.051117919E+01  5.110000000E-04  0.00000E+00  9.000E+00
     -11     1     3     3     0     0  5.465754419E-01  7.848819895E-01  2.362157294E+01  2.364092834E+01  5.110000000E-04  0.00000E+00  9.000E+00
       2     1     1     2   502     0 -2.842501670E-01  3.969828819E-01  1.883012378E+01  1.883645283E+01  0.000000000E+00  0.00000E+00  9.000E+00
#rwgt            1          24  -10962132.877700595                3     3479035           0
<weights>
-.11145E+08
-.12289E+08
-.98187E+07
-.14942E+08
-.78675E+07
-.91661E+07
-.13909E+08
-.11175E+08
-.11116E+08
-.10830E+08
-.10824E+08
-.10964E+08
-.11012E+08
-.10849E+08
-.10834E+08
-.11225E+08
-.11205E+08
-.11452E+08
-.11491E+08
-.11480E+08
-.11429E+08
-.11489E+08
-.11510E+08
-.11395E+08
-.11328E+08
-.11285E+08
-.11328E+08
-.11424E+08
-.11362E+08
-.11465E+08
-.11501E+08
-.11180E+08
-.11217E+08
-.11139E+08
-.11176E+08
-.11212E+08
-.11098E+08
-.11119E+08
-.11097E+08
-.11163E+08
-.11131E+08
-.11183E+08
-.11106E+08
-.11495E+08
-.10823E+08
</weights>
</event>
<event>
      7  10001  1.11453E+07  1.73404E+00 -1.00000E+00  3.82675E-01
      -1    -1     0     0     0   501  0.000000000E+00  0.000000000E+00  1.434020971E+02  1.434020971E+02  0.000000000E+00  0.00000E+00  9.000E+00
       4    -1     0     0   501     0  0.000000000E+00  0.000000000E+00 -6.372842144E-01  6.372842144E-01  0.000000000E+00  0.00000E+00  9.000E+00
      23     2     1     2     0     0 -1.367120164E+00  1.797621056E+00  7.654455964E+00  8.790072364E+00  3.684320434E+00  0.00000E+00  9.000E+00
      11     1     3     3     0     0 -1.774006660E+00  1.169719870E+00  1.525990483E+00  2.616102334E+00  5.110000000E-04  0.00000E+00  9.000E+00
     -11     1     3     3     0     0  4.068864966E-01  6.279011856E-01  6.128465481E+00  6.173970031E+00  5.110000000E-04  0.00000E+00  9.000E+00
       4     1     1     2   502     0  1.932688598E+00 -1.584004264E-01  1.480512901E+01  1.493158468E+01  0.000000000E+00  0.00000E+00  9.000E+00
      -1     1     1     2     0   502 -5.655684342E-01 -1.639220629E+00  1.203052279E+02  1.203177242E+02  0.000000000E+00  0.00000E+00  9.000E+00
#rwgt            1          19   698889.73760803742                3     3482456           0
<weights>
0.11145E+08
0.13099E+08
0.91424E+07
0.12600E+08
0.94986E+07
0.11421E+08
0.10455E+08
0.11192E+08
0.11094E+08
0.10745E+08
0.10705E+08
0.10919E+08
0.10964E+08
0.10751E+08
0.10720E+08
0.11246E+08
0.11260E+08
0.11583E+08
0.11590E+08
0.11585E+08
0.11548E+08
0.11630E+08
0.11634E+08
0.11448E+08
0.11400E+08
0.11380E+08
0.11176E+08
0.11565E+08
0.11436E+08
0.11615E+08
0.11640E+08
0.11220E+08
0.11219E+08
0.11122E+08
0.11204E+08
0.11234E+08
0.11077E+08
0.11239E+08
0.10965E+08
0.11199E+08
0.11100E+08
0.11191E+08
0.11098E+08
0.11617E+08
0.10716E+08
</weights>
</event>
<event>
      7  10001  1.11453E+07  1.63086E+01 -1.00000E+00  1.73789E-01
      -4    -1     0     0     0   502  0.000000000E+00  0.000000000E+00  1.225199262E+00  1.225199262E+00  0.000000000E+00  0.00000E+00  9.000E+00
      21    -1     0     0   502   501  0.000000000E+00  0.000000000E+00 -6.287740571E+01  6.287740571E+01  0.000000000E+00  0.00000E+00  9.000E+00
      23     2     1     2     0     0 -3.037486724E-01 -2.013595990E+00 -1.960484352E-01  2.282413701E+00  1.012000616E+00  0.00000E+00  9.000E+00
      11     1     3     3     0     0 -1.890802484E-01 -1.983509293E+00  6.727262105E-02  1.993636457E+00  5.110000000E-04  0.00000E+00  9.000E+00
     -11     1     3     3     0     0 -1.146684240E-01 -3.008669652E-02 -2.633210563E-01  2.887772439E-01  5.110000000E-04  0.00000E+00  9.000E+00
      -4     1     1     2     0   511  5.050084713E-01  4.191473711E-01 -4.566801609E-01  7.995466492E-01  0.000000000E+00  0.00000E+00  9.000E+00
      21     1     1     2   511   501 -2.012597990E-01  1.594448619E+00 -6.099947785E+01  6.102064462E+01  2.523185073E-06  0.00000E+00  9.000E+00
#rwgt            2          41   1466671.4019162306                3     3494352           0
<weights>
0.11145E+08
0.10412E+08
0.11783E+08
0.12655E+08
0.94413E+07
0.91702E+07
0.13910E+08
0.11199E+08
0.11092E+08
0.11049E+08
0.11112E+08
0.11037E+08
0.11194E+08
0.11108E+08
0.11118E+08
0.11173E+08
0.11082E+08
0.11167E+08
0.11138E+08
0.11132E+08
0.11170E+08
0.11156E+08
0.11158E+08
0.11115E+08
0.11206E+08
0.11191E+08
0.11093E+08
0.11147E+08
0.11111E+08
0.11115E+08
0.11158E+08
0.11098E+08
0.11198E+08
0.11157E+08
0.11129E+08
0.11250E+08
0.11049E+08
0.10886E+08
0.11441E+08
0.11070E+08
0.11214E+08
0.11125E+08
0.11167E+08
0.11192E+08
0.11088E+08
</weights>
</event>
<event>
      6  10001 -1.11453E+07  8.94427E-01 -1.00000E+00  4.97890E-01
      21    -1     0     0   502   501  0.000000000E+00  0.000000000E+00  2.036917398E-02  2.036917398E-02  0.000000000E+00  0.00000E+00  9.000E+00
       2    -1     0     0   501     0  0.000000000E+00  0.000000000E+00 -8.534113591E+01  8.534113591E+01  0.000000000E+00  0.00000E+00  9.000E+00
      23     2     1     2     0     0 -3.113329233E-02 -3.034111468E-01 -8.311249857E+01  8.313227295E+01  1.787277256E+00  0.00000E+00  9.000E+00
      11     1     3     3     0     0  8.542669500E-01  5.765893611E-02 -4.042814582E+01  4.043721147E+01  5.110000000E-04  0.00000E+00  9.000E+00
     -11     1     3     3     0     0 -8.854002423E-01 -3.610700829E-01 -4.268435274E+01  4.269506148E+01  5.110000000E-04  0.00000E+00  9.000E+00
       2     1     1     2   502     0  3.113329233E-02  3.034111468E-01 -2.208268168E+00  2.229232134E+00  0.000000000E+00  0.00000E+00  9.000E+00
#rwgt            1          17  -13045896.035724716                3     3494793           0
<weights>
-.11145E+08
-.12604E+08
-.95315E+07
-.15319E+08
-.76372E+07
-.91702E+07
-.13910E+08
-.11160E+08
-.11130E+08
-.11138E+08
-.11159E+08
-.11161E+08
-.11105E+08
-.11158E+08
-.11160E+08
-.11164E+08
-.11082E+08
-.11076E+08
-.11185E+08
-.11192E+08
-.11071E+08
-.11126E+08
-.11120E+08
-.11232E+08
-.11031E+08
-.11069E+08
-.11178E+08
-.11229E+08
-.10965E+08
-.11134E+08
-.11115E+08
-.11130E+08
-.11152E+08
-.11085E+08
-.11219E+08
-.11132E+08
-.11153E+08
-.11105E+08
-.11196E+08
-.11094E+08
-.11186E+08
-.11196E+08
-.11091E+08
-.11132E+08
-.11153E+08
</weights>
</event>
<event>
      6  10001 -1.11453E+07  8.94427E-01 -1.00000E+00  5.83421E-01
      21    -1     0     0   502   501  0.000000000E+00  0.000000000E+00  1.220983497E-03  1.220983497E-03  0.000000000E+00  0.00000E+00  9.000E+00
       2    -1     0     0   501     0  0.000000000E+00  0.000000000E+00 -6.021325594E+02  6.021325594E+02  0.000000000E+00  0.00000E+00  9.000E+00
      23     2     1     2     0     0  2.785210059E-02 -4.358608196E-01 -5.180019382E+02  5.180032465E+02  1.079192885E+00  0.00000E+00  9.000E+00
      11     1     3     3     0     0  3.332507463E-01 -4.462694492E-01 -1.305833692E+02  1.305845570E+02  5.110000000E-04  0.00000E+00  9.000E+00
     -11     1     3     3     0     0 -3.053986457E-01  1.040862966E-02 -3.874185690E+02  3.874186895E+02  5.110000000E-04  0.00000E+00  9.000E+00
       2     1     1     2   502     0 -2.785210059E-02  4.358608196E-01 -8.412940023E+01  8.413053389E+01  0.000000000E+00  0.00000E+00  9.000E+00
#rwgt            1          17  -63090812.390994325                3     3495486           0
<weights>
-.11145E+08
-.14987E+08
-.62136E+07
-.18215E+08
-.49787E+07
-.91702E+07
-.13910E+08
-.11132E+08
-.11158E+08
-.11163E+08
-.11145E+08
-.10953E+08
-.11361E+08
-.11154E+08
-.11149E+08
-.11183E+08
-.11079E+08
-.11530E+08
-.10614E+08
-.10534E+08
-.11579E+08
-.11113E+08
-.11172E+08
-.10993E+08
-.11263E+08
-.11440E+08
-.10965E+08
-.10659E+08
-.11699E+08
-.11057E+08
-.11201E+08
-.11054E+08
-.11235E+08
-.11619E+08
-.10575E+08
-.11078E+08
-.11207E+08
-.11135E+08
-.11165E+08
-.11285E+08
-.11022E+08
-.11126E+08
-.11165E+08
-.11136E+08
-.11155E+08
</weights>
</event>
<event>
      6  10001  1.11453E+07  8.94427E-01 -1.00000E+00  6.06903E-01
       2    -1     0     0   501     0  0.000000000E+00  0.000000000E+00  1.267823859E+01  1.267823859E+01  0.000000000E+00  0.00000E+00  9.000E+00
      -2    -1     0     0     0   502  0.000000000E+00  0.000000000E+00 -4.433268473E-02  4.433268473E-02  0.000000000E+00  0.00000E+00  9.000E+00
      23     2     1     2     0     0 -2.236357581E-01 -2.538301697E-01  8.684118037E+00  8.758322681E+00  1.086217013E+00  0.00000E+00  9.000E+00
      11     1     3     3     0     0  7.930421814E-02  3.016193724E-01  9.836467151E-01  1.031903351E+00  5.110000000E-04  0.00000E+00  9.000E+00
     -11     1     3     3     0     0 -3.029399762E-01 -5.554495421E-01  7.700471322E+00  7.726419330E+00  5.110000000E-04  0.00000E+00  9.000E+00
      21     1     1     2   501   502  2.236357581E-01  2.538301697E-01  3.949787866E+00  3.964248592E+00  5.960464478E-08  0.00000E+00  9.000E+00
#rwgt            1          23   252298.42736772049                3     3499027           0
<weights>
0.11145E+08
0.15436E+08
0.78440E+07
0.57344E+07
0.13599E+08
0.17366E+08
0.13288E+07
0.10268E+08
0.12365E+08
0.10723E+08
0.10573E+08
0.10982E+08
0.10788E+08
0.10694E+08
0.10601E+08
0.11106E+08
0.11536E+08
0.11697E+08
0.11730E+08
0.11672E+08
0.11679E+08
0.11785E+08
0.11707E+08
0.11955E+08
0.11122E+08
0.11427E+08
0.11777E+08
0.11743E+08
0.11446E+08
0.11813E+08
0.11745E+08
0.11161E+08
0.11325E+08
0.11122E+08
0.11234E+08
0.10589E+08
0.11811E+08
0.11467E+08
0.10771E+08
0.11226E+08
0.11068E+08
0.11301E+08
0.10980E+08
0.11712E+08
0.10637E+08
</weights>
</event>
<event>
      6  10001  1.11453E+07  8.94427E-01 -1.00000E+00  5.79163E-01
      -1    -1     0     0     0   502  0.000000000E+00  0.000000000E+00  4.444003678E-02  4.444003678E-02  0.000000000E+00  0.00000E+00  9.000E+00
      21    -1     0     0   502   501  0.000000000E+00  0.000000000E+00 -1.950626772E+01  1.950626772E+01  0.000000000E+00  0.00000E+00  9.000E+00
      23     2     1     2     0     0  5.275881488E-01 -1.151675941E-01 -8.760442847E+00  8.835706579E+00  1.016237690E+00  0.00000E+00  9.000E+00
      11     1     3     3     0     0 -2.160756504E-01 -2.531361706E-01 -4.180768178E+00  4.193994447E+00  5.110000000E-04  0.00000E+00  9.000E+00
     -11     1     3     3     0     0  7.436637992E-01  1.379685765E-01 -4.579674669E+00  4.641712131E+00  5.110000000E-04  0.00000E+00  9.000E+00
      -1     1     1     2     0   501 -5.275881488E-01  1.151675941E-01 -1.070138484E+01  1.071500118E+01  0.000000000E+00  0.00000E+00  9.000E+00
#rwgt            1           9   202557.74626560201                3     3500545           0
<weights>
0.11158E+08
0.13941E+08
0.84405E+07
0.11603E+08
0.10046E+08
0.12693E+08
0.85348E+07
0.11339E+08
0.10972E+08
0.10414E+08
0.10480E+08
0.10770E+08
0.10851E+08
0.10462E+08
0.10476E+08
0.11312E+08
0.11338E+08
0.11831E+08
0.11933E+08
0.11930E+08
0.11778E+08
0.11882E+08
0.12029E+08
0.11448E+08
0.11788E+08
0.11684E+08
0.10960E+08
0.11800E+08
0.11542E+08
0.11803E+08
0.11920E+08
0.11194E+08
0.11348E+08
0.11168E+08
0.11188E+08
0.11427E+08
0.10927E+08
0.10847E+08
0.11188E+08
0.11222E+08
0.11103E+08
0.11220E+08
0.11094E+08
0.11936E+08
0.10441E+08
</weights>
</event>
<event>
      7  10001  1.11453E+07  2.52593E+00 -1.00000E+00  3.15504E-01
      -4    -1     0     0     0   502  0.000000000E+00  0.000000000E+00  2.857048643E+00  2.857048643E+00  0.000000000E+00  0.00000E+00  9.000E+00
      21    -1     0     0   502   501  0.000000000E+00  0.000000000E+00 -2.086676150E+00  2.086676150E+00  0.000000000E+00  0.00000E+00  9.000E+00
      23     2     1     2     0     0 -4.409387297E-01  3.418818601E-01  1.242039959E+00  2.034133998E+00  1.511200745E+00  0.00000E+00  9.000E+00
      11     1     3     3     0     0  4.962629362E-01  1.362136211E-02  8.125499115E-01  9.522079936E-01  5.110000000E-04  0.00000E+00  9.000E+00
     -11     1     3     3     0     0 -9.372016659E-01  3.282604980E-01  4.294900475E-01  1.081926004E+00  5.110000000E-04  0.00000E+00  9.000E+00
      -4     1     1     2     0   511  7.038789216E-01 -1.491202269E+00 -2.607930455E-02  1.649184608E+00  0.000000000E+00  0.00000E+00  9.000E+00
      21     1     1     2   511   501 -2.629401918E-01  1.149320408E+00 -4.455881613E-01  1.260406187E+00  6.746787681E-08  0.00000E+00  9.000E+00
#rwgt            1           3   850862.04455716291                3     3506222           0
<weights>
0.11145E+08
0.13234E+08
0.90905E+07
0.12363E+08
0.94741E+07
0.11578E+08
0.10213E+08
0.11198E+08
0.11087E+08
0.10722E+08
0.10688E+08
0.10908E+08
0.10953E+08
0.10732E+08
0.10703E+08
0.11255E+08
0.11256E+08
0.11597E+08
0.11613E+08
0.11607E+08
0.11561E+08
0.11645E+08
0.11660E+08
0.11454E+08
0.11417E+08
0.11384E+08
0.11181E+08
0.11572E+08
0.11449E+08
0.11625E+08
0.11658E+08
0.11218E+08
0.11225E+08
0.11123E+08
0.11203E+08
0.11240E+08
0.11072E+08
0.11205E+08
0.10968E+08
0.11197E+08
0.11102E+08
0.11196E+08
0.11092E+08
0.11637E+08
0.10697E+08
</weights>
</event>
<event>
      6  10001 -1.11453E+07  8.94427E-01 -1.00000E+00  3.26917E-01
      -3    -1     0     0     0   502  0.000000000E+00  0.000000000E+00  1.387593545E+02  1.387593545E+02  0.000000000E+00  0.00000E+00  9.000E+00
      21    -1     0     0   502   501  0.000000000E+00  0.000000000E+00 -1.829768392E-02  1.829768392E-02  0.000000000E+00  0.00000E+00  9.000E+00
      23     2     1     2     0     0  4.271502191E-01  7.786360317E-01  1.242465261E+02  1.242559390E+02  1.245155554E+00  0.00000E+00  9.000E+00
      11     1     3     3     0     0  4.628917530E-01 -1.828016864E-01  6.177727477E+01  6.177927940E+01  5.110000000E-04  0.00000E+00  9.000E+00
     -11     1     3     3     0     0 -3.574153385E-02  9.614377181E-01  6.246925128E+01  6.247665961E+01  5.110000000E-04  0.00000E+00  9.000E+00
      -3     1     1     2     0   501 -4.271502191E-01 -7.786360317E-01  1.449453075E+01  1.452171316E+01  0.000000000E+00  0.00000E+00  9.000E+00
#rwgt            1           5  -631274.09307249496                3     3529596           0
<weights>
-.11145E+08
-.12596E+08
-.94658E+07
-.15316E+08
-.75848E+07
-.91659E+07
-.13909E+08
-.11178E+08
-.11113E+08
-.10837E+08
-.10835E+08
-.10967E+08
-.11018E+08
-.10858E+08
-.10845E+08
-.11224E+08
-.11199E+08
-.11441E+08
-.11478E+08
-.11467E+08
-.11419E+08
-.11475E+08
-.11498E+08
-.11381E+08
-.11327E+08
-.11280E+08
-.11311E+08
-.11412E+08
-.11353E+08
-.11451E+08
-.11488E+08
-.11176E+08
-.11217E+08
-.11140E+08
-.11173E+08
-.11214E+08
-.11095E+08
-.11105E+08
-.11115E+08
-.11159E+08
-.11134E+08
-.11182E+08
-.11107E+08
-.11484E+08
-.10833E+08
</weights>
</event>
<event>
      7  10001  1.11453E+07  1.21516E+00 -1.00000E+00  4.92542E-01
       2    -1     0     0   501     0  0.000000000E+00  0.000000000E+00  4.619506337E+01  4.619506337E+01  0.000000000E+00  0.00000E+00  9.000E+00
      -1    -1     0     0     0   501  0.000000000E+00  0.000000000E+00 -8.379821584E-01  8.379821584E-01  0.000000000E+00  0.00000E+00  9.000E+00
      23     2     1     2     0     0 -5.259917013E-01  4.304634988E-01  4.504275955E+01  4.515963035E+01  3.174910901E+00  0.00000E+00  9.000E+00
      11     1     3     3     0     0 -2.818067649E-01  9.862386467E-01  4.333584444E+01  4.334798144E+01  5.110000000E-04  0.00000E+00  9.000E+00
     -11     1     3     3     0     0 -2.441849364E-01 -5.557751479E-01  1.706915114E+00  1.811648908E+00  5.110000000E-04  0.00000E+00  9.000E+00
       2     1     1     2   502     0 -7.251112979E-02  6.270894992E-01  1.265813323E-01  6.438337810E-01  0.000000000E+00  0.00000E+00  9.000E+00
      -1     1     1     2     0   502  5.985028311E-01 -1.057552998E+00  1.877403280E-01  1.229581398E+00  0.000000000E+00  0.00000E+00  9.000E+00
#rwgt            1          24   4947776.9622193966                3     3532415           0
<weights>
0.11145E+08
0.11079E+08
0.12023E+08
0.96958E+07
0.12132E+08
0.11740E+08
0.99650E+07
0.11166E+08
0.11123E+08
0.10757E+08
0.10719E+08
0.10928E+08
0.10961E+08
0.10766E+08
0.10734E+08
0.11244E+08
0.11244E+08
0.11559E+08
0.11594E+08
0.11581E+08
0.11527E+08
0.11612E+08
0.11616E+08
0.11499E+08
0.11355E+08
0.11323E+08
0.11367E+08
0.11531E+08
0.11447E+08
0.11597E+08
0.11624E+08
0.11211E+08
0.11222E+08
0.11126E+08
0.11199E+08
0.11204E+08
0.11109E+08
0.11234E+08
0.10979E+08
0.11192E+08
0.11106E+08
0.11199E+08
0.11089E+08
0.11601E+08
0.10729E+08
</weights>
</event>
<event>
      7  10001  1.11453E+07  1.08886E+01 -1.00000E+00  1.91140E-01
      21    -1     0     0   502   501  0.000000000E+00  0.000000000E+00  3.061223497E-01  3.061223497E-01  0.000000000E+00  0.00000E+00  9.000E+00
       1    -1     0     0   501     0  0.000000000E+00  0.000000000E+00 -1.030850399E+02  1.030850399E+02  0.000000000E+00  0.00000E+00  9.000E+00
      23     2     1     2     0     0 -1.501609752E-01 -6.791605295E-01 -8.242771052E+01  8.244063048E+01  1.283076121E+00  0.00000E+00  9.000E+00
      11     1     3     3     0     0  4.390890548E-01 -6.531963998E-01 -3.292330992E+01  3.293271628E+01  5.110000000E-04  0.00000E+00  9.000E+00
     -11     1     3     3     0     0 -5.892500300E-01 -2.596412973E-02 -4.950440060E+01  4.950791420E+01  5.110000000E-04  0.00000E+00  9.000E+00
       1     1     1     2   511     0 -2.784698693E-01  1.389261186E-01 -2.025132356E+01  2.025371452E+01  0.000000000E+00  0.00000E+00  9.000E+00
      21     1     1     2   502   511  4.286308444E-01  5.402344109E-01 -9.988350555E-02  6.968172890E-01  4.674664170E-07  0.00000E+00  9.000E+00
#rwgt            2         186   1826111.4516908720                3     3668511           0
<weights>
0.11145E+08
0.10730E+08
0.11432E+08
0.13041E+08
0.91601E+07
0.91702E+07
0.13910E+08
0.11213E+08
0.11078E+08
0.11162E+08
0.11172E+08
0.11137E+08
0.11111E+08
0.11179E+08
0.11183E+08
0.10567E+08
0.11782E+08
0.10826E+08
0.11369E+08
0.11387E+08
0.10793E+08
0.11136E+08
0.11049E+08
0.11265E+08
0.10954E+08
0.11019E+08
0.11188E+08
0.11226E+08
0.10835E+08
0.11133E+08
0.11078E+08
0.11104E+08
0.11170E+08
0.10846E+08
0.11408E+08
0.11082E+08
0.11194E+08
0.11090E+08
0.11220E+08
0.11179E+08
0.11105E+08
0.11223E+08
0.11061E+08
0.11108E+08
0.11175E+08
</weights>
</event>
<event>
      6  10001 -1.11453E+07  8.94427E-01 -1.00000E+00  6.58451E-01
       1    -1     0     0   501     0  0.000000000E+00  0.000000000E+00  2.459094628E+02  2.459094628E+02  0.000000000E+00  0.00000E+00  9.000E+00
      -1    -1     0     0     0   502  0.000000000E+00  0.000000000E+00 -9.106828838E-03  9.106828838E-03  0.000000000E+00  0.00000E+00  9.000E+00
      23     2     1     2     0     0 -2.204037402E-01 -1.358659616E-01  1.490945578E+02  1.491124252E+02  2.293719588E+00  0.00000E+00  9.000E+00
      11     1     3     3     0     0 -5.296720653E-01  9.782463139E-02  8.360132015E+00  8.377465590E+00  5.110000000E-04  0.00000E+00  9.000E+00
     -11     1     3     3     0     0  3.092683252E-01 -2.336905930E-01  1.407344258E+02  1.407349596E+02  5.110000000E-04  0.00000E+00  9.000E+00
      21     1     1     2   501   502  2.204037402E-01  1.358659616E-01  9.680579815E+01  9.680614440E+01  1.348699152E-06  0.00000E+00  9.000E+00
#rwgt            1          21  -218716.79046653566                3     3669009           0
<weights>
-.11145E+08
-.12196E+08
-.98698E+07
-.14831E+08
-.79085E+07
-.91657E+07
-.13909E+08
-.11151E+08
-.11147E+08
-.10817E+08
-.10802E+08
-.10960E+08
-.10998E+08
-.10833E+08
-.10813E+08
-.11224E+08
-.11221E+08
-.11474E+08
-.11515E+08
-.11502E+08
-.11450E+08
-.11515E+08
-.11531E+08
-.11428E+08
-.11326E+08
-.11293E+08
-.11357E+08
-.11448E+08
-.11378E+08
-.11495E+08
-.11526E+08
-.11185E+08
-.11220E+08
-.11137E+08
-.11180E+08
-.11194E+08
-.11118E+08
-.11147E+08
-.11069E+08
-.11170E+08
-.11125E+08
-.11189E+08
-.11100E+08
-.11517E+08
-.10804E+08
</weights>
</event>
<event>
      6  10001 -1.11453E+07  8.94427E-01 -1.00000E+00  2.61863E-01
       2    -1     0     0   501     0  0.000000000E+00  0.000000000E+00  5.991295806E+02  5.991295806E+02  0.000000000E+00  0.00000E+00  9.000E+00
      21    -1     0     0   502   501  0.000000000E+00  0.000000000E+00 -1.268422756E-02  1.268422756E-02  0.000000000E+00  0.00000E+00  9.000E+00
      23     2     1     2     0     0  7.517355190E-01  7.110092573E-01  1.285237617E+02  1.285479927E+02  2.271220559E+00  0.00000E+00  9.000E+00
      11     1     3     3     0     0  8.207090836E-01 -1.603231472E-01  1.678900396E+01  1.680981621E+01  5.110000000E-04  0.00000E+00  9.000E+00
     -11     1     3     3     0     0 -6.897356466E-02  8.713324045E-01  1.117347578E+02  1.117381764E+02  5.110000000E-04  0.00000E+00  9.000E+00
       2     1     1     2   502     0 -7.517355190E-01 -7.110092573E-01  4.705931347E+02  4.705942722E+02  0.000000000E+00  0.00000E+00  9.000E+00
#rwgt            1          24  -7333429.3105310695                3     3669481           0
<weights>
-.11145E+08
-.12155E+08
-.98775E+07
-.14787E+08
-.79148E+07
-.91621E+07
-.13909E+08
-.11171E+08
-.11121E+08
-.10823E+08
-.10813E+08
-.10962E+08
-.11006E+08
-.10841E+08
-.10824E+08
-.11226E+08
-.11211E+08
-.11462E+08
-.11505E+08
-.11492E+08
-.11439E+08
-.11502E+08
-.11521E+08
-.11413E+08
-.11328E+08
-.11287E+08
-.11359E+08
-.11435E+08
-.11372E+08
-.11479E+08
-.11514E+08
-.11184E+08
-.11217E+08
-.11138E+08
-.11178E+08
-.11208E+08
-.11102E+08
-.11132E+08
-.11084E+08
-.11166E+08
-.11128E+08
-.11185E+08
-.11104E+08
-.11506E+08
-.10814E+08
</weights>
</event>
<event>
      6  10001 -1.11453E+07  8.94427E-01 -1.00000E+00  2.41690E-01
      -5    -1     0     0     0   502  0.000000000E+00  0.000000000E+00  3.007799975E-01  3.007799975E-01  0.000000000E+00  0.00000E+00  9.000E+00
      21    -1     0     0   502   501  0.000000000E+00  0.000000000E+00 -4.186790796E+00  4.186790796E+00  0.000000000E+00  0.00000E+00  9.000E+00
      23     2     1     2     0     0  1.260833182E-01 -2.616274947E-01 -2.457370501E+00  3.029709673E+00  1.748177614E+00  0.00000E+00  9.000E+00
      11     1     3     3     0     0 -1.444416271E-01  6.457059959E-02  2.464577593E-01  2.928727270E-01  5.110000000E-04  0.00000E+00  9.000E+00
     -11     1     3     3     0     0  2.705249453E-01 -3.261980943E-01 -2.703828261E+00  2.736836946E+00  5.110000000E-04  0.00000E+00  9.000E+00
      -5     1     1     2     0   501 -1.260833182E-01  2.616274947E-01 -1.428640297E+00  1.457861121E+00  0.000000000E+00  0.00000E+00  9.000E+00
#rwgt            1           1  -105808.14588290908                3     3670324           0
<weights>
-.11145E+08
-.79437E+07
-.13277E+08
-.15965E+08
-.74848E+07
-.53546E+07
-.19767E+08
-.11172E+08
-.11122E+08
-.11297E+08
-.11392E+08
-.11180E+08
-.11299E+08
-.11358E+08
-.11389E+08
-.11141E+08
-.10959E+08
-.10889E+08
-.10848E+08
-.10845E+08
-.10911E+08
-.10842E+08
-.10852E+08
-.10906E+08
-.11057E+08
-.10990E+08
-.11092E+08
-.10842E+08
-.10948E+08
-.10805E+08
-.10841E+08
-.11058E+08
-.11142E+08
-.11171E+08
-.11092E+08
-.11182E+08
-.11102E+08
-.10795E+08
-.11571E+08
-.11018E+08
-.11257E+08
-.11113E+08
-.11179E+08
-.10892E+08
-.11360E+08
</weights>
</event>
<event>
      7  10001  1.11453E+07  8.94427E-01 -1.00000E+00  6.07649E-01
      -2    -1     0     0     0   502  0.000000000E+00  0.000000000E+00  6.109519229E-01  6.109519229E-01  0.000000000E+00  0.00000E+00  9.000E+00
      21    -1     0     0   501   511  0.000000000E+00  0.000000000E+00 -1.620885638E+01  1.620885638E+01  0.000000000E+00  0.00000E+00  9.000E+00
      23     2     1     2     0     0  4.290430616E-01 -2.688243341E-01 -2.247572406E+00  3.393077331E+00  2.490993292E+00  0.00000E+00  9.000E+00
      11     1     3     3     0     0  1.073383910E+00 -1.068029056E+00 -1.388606494E+00  2.054523628E+00  5.110000000E-04  0.00000E+00  9.000E+00
     -11     1     3     3     0     0 -6.443408485E-01  7.992047216E-01 -8.589659115E-01  1.338553702E+00  5.110000000E-04  0.00000E+00  9.000E+00
      21     1     1     2   501   502 -7.516816855E-01  3.260459449E-01 -1.228145974E+01  1.230876048E+01  1.685873940E-07  0.00000E+00  9.000E+00
      -2     1     1     2     0   511  3.226386239E-01 -5.722161083E-02 -1.068872317E+00  1.117970493E+00  0.000000000E+00  0.00000E+00  9.000E+00
#rwgt            2         102   963346.24550134398                3     3673243           0
<weights>
0.11145E+08
0.10930E+08
0.11187E+08
0.13284E+08
0.89635E+07
0.91702E+07
0.13910E+08
0.11214E+08
0.11075E+08
0.10914E+08
0.10954E+08
0.10992E+08
0.11092E+08
0.10950E+08
0.10958E+08
0.11206E+08
0.11148E+08
0.11329E+08
0.11337E+08
0.11334E+08
0.11316E+08
0.11335E+08
0.11377E+08
0.11204E+08
0.11334E+08
0.11285E+08
0.11069E+08
0.11301E+08
0.11234E+08
0.11296E+08
0.11347E+08
0.11135E+08
0.11216E+08
0.11148E+08
0.11151E+08
0.11259E+08
0.11044E+08
0.10953E+08
0.11275E+08
0.11121E+08
0.11168E+08
0.11156E+08
0.11135E+08
0.11365E+08
0.10936E+08
</weights>
</event>
<event>
      7  10001  1.11453E+07  5.17840E+00 -1.00000E+00  2.34373E-01
       5    -1     0     0   501     0  0.000000000E+00  0.000000000E+00  1.353842583E-01  1.353842583E-01  0.000000000E+00  0.00000E+00  9.000E+00
      21    -1     0     0   502   501  0.000000000E+00  0.000000000E+00 -3.305914622E+02  3.305914622E+02  0.000000000E+00  0.00000E+00  9.000E+00
      23     2     1     2     0     0  2.195159982E+00  3.445009542E+00 -2.382628816E+02  2.383136175E+02  2.737286782E+00  0.00000E+00  9.000E+00
      11     1     3     3     0     0  1.424163240E+00  1.733713846E+00 -1.914176275E+02  1.914307763E+02  5.110000000E-04  0.00000E+00  9.000E+00
     -11     1     3     3     0     0  7.709967425E-01  1.711295697E+00 -4.684525407E+01  4.688284119E+01  5.110000000E-04  0.00000E+00  9.000E+00
       5     1     1     2   511     0 -3.107915402E+00 -1.428860388E+00 -7.502983766E+01  7.510777136E+01  0.000000000E+00  0.00000E+00  9.000E+00
      21     1     1     2   502   511  9.127554191E-01 -2.016149154E+00 -1.716335871E+01  1.730545758E+01  5.840038640E-07  0.00000E+00  9.000E+00
#rwgt            1          30   34657.491747821499                3     3673266           0
<weights>
0.11145E+08
0.11911E+08
0.99079E+07
0.12923E+08
0.90592E+07
0.10280E+08
0.12206E+08
0.10975E+08
0.11309E+08
0.11626E+08
0.11432E+08
0.11205E+08
0.11511E+08
0.11536E+08
0.11501E+08
0.11056E+08
0.11084E+08
0.10805E+08
0.10752E+08
0.10757E+08
0.10832E+08
0.10787E+08
0.10696E+08
0.11119E+08
0.10678E+08
0.10844E+08
0.11267E+08
0.10892E+08
0.10918E+08
0.10867E+08
0.10764E+08
0.11208E+08
0.10963E+08
0.11065E+08
0.11220E+08
0.11013E+08
0.11254E+08
0.11502E+08
0.10787E+08
0.10998E+08
0.11285E+08
0.11040E+08
0.11257E+08
0.10731E+08
0.11532E+08
</weights>
</event>
<event>
      6  10001  1.11453E+07  8.94427E-01 -1.00000E+00  4.28041E-01
      21    -1     0     0   502   501  0.000000000E+00  0.000000000E+00  2.232712619E+01  2.232712619E+01  0.000000000E+00  0.00000E+00  9.000E+00
      -4    -1     0     0     0   502  0.000000000E+00  0.000000000E+00 -7.033188980E-02  7.033188980E-02  0.000000000E+00  0.00000E+00  9.000E+00
      23     2     1     2     0     0 -3.182367328E-01  2.337218911E-01  1.601478249E+01  1.614297073E+01  1.991568559E+00  0.00000E+00  9.000E+00
      11     1     3     3     0     0  4.277653541E-01 -1.155520280E-02  1.353616897E+01  1.354293127E+01  5.110000000E-04  0.00000E+00  9.000E+00
     -11     1     3     3     0     0 -7.460020869E-01  2.452770939E-01  2.478613519E+00  2.600039462E+00  5.110000000E-04  0.00000E+00  9.000E+00
      -4     1     1     2     0   501  3.182367328E-01 -2.337218911E-01  6.242011812E+00  6.254487350E+00  0.000000000E+00  0.00000E+00  9.000E+00
#rwgt            1          12   259133.33761809216                3     3676789           0
<weights>
0.11145E+08
0.16756E+08
0.61720E+07
0.10070E+08
0.11108E+08
0.15864E+08
0.36340E+07
0.11116E+08
0.11177E+08
0.10637E+08
0.10532E+08
0.10884E+08
0.10858E+08
0.10618E+08
0.10556E+08
0.11259E+08
0.11354E+08
0.11738E+08
0.11817E+08
0.11795E+08
0.11694E+08
0.11835E+08
0.11811E+08
0.11753E+08
0.11376E+08
0.11385E+08
0.11669E+08
0.11733E+08
0.11606E+08
0.11842E+08
0.11845E+08
0.11278E+08
0.11223E+08
0.11111E+08
0.11236E+08
0.11159E+08
0.11163E+08
0.11479E+08
0.10732E+08
0.11255E+08
0.11050E+08
0.11226E+08
0.11060E+08
0.11788E+08
0.10567E+08
</weights>
</event>
<event>
      6  10001 -1.11453E+07  8.94427E-01 -1.00000E+00  5.61822E-01
      21    -1     0     0   502   501  0.000000000E+00  0.000000000E+00  1.123672796E-02  1.123672796E-02  0.000000000E+00  0.00000E+00  9.000E+00
       2    -1     0     0   501     0  0.000000000E+00  0.000000000E+00 -4.124519331E+02  4.124519331E+02  0.000000000E+00  0.00000E+00  9.000E+00
      23     2     1     2     0     0  2.785662963E-01  3.708935060E-01 -3.941812115E+02  3.941977941E+02  3.585839549E+00  0.00000E+00  9.000E+00
      11     1     3     3     0     0 -1.002682236E+00 -6.562025223E-01 -5.705186131E+01  5.706444473E+01  5.110000000E-04  0.00000E+00  9.000E+00
     -11     1     3     3     0     0  1.281248532E+00  1.027096028E+00 -3.371293502E+02  3.371333494E+02  5.110000000E-04  0.00000E+00  9.000E+00
       2     1     1     2   502     0 -2.785662963E-01 -3.708935060E-01 -1.825948491E+01  1.826537572E+01  0.000000000E+00  0.00000E+00  9.000E+00
#rwgt            1          17  -34357109.568159319                3     3684651           0
<weights>
-.11145E+08
-.11394E+08
-.10808E+08
-.13848E+08
-.86603E+07
-.91702E+07
-.13910E+08
-.11129E+08
-.11161E+08
-.11166E+08
-.11154E+08
-.11004E+08
-.11307E+08
-.11159E+08
-.11155E+08
-.11309E+08
-.10899E+08
-.11434E+08
-.10724E+08
-.10667E+08
-.11468E+08
-.11107E+08
-.11168E+08
-.11069E+08
-.11179E+08
-.11301E+08
-.11045E+08
-.10796E+08
-.11517E+08
-.11073E+08
-.11181E+08
-.11022E+08
-.11266E+08
-.11464E+08
-.10750E+08
-.11106E+08
-.11181E+08
-.11153E+08
-.11142E+08
-.11238E+08
-.11061E+08
-.11138E+08
-.11152E+08
-.11130E+08
-.11161E+08
</weights>
</event>
<event>
      6  10001 -1.11453E+07  8.94427E-01 -1.00000E+00  1.45038E-01
      -2    -1     0     0     0   502  0.000000000E+00  0.000000000E+00  1.088419037E+02  1.088419037E+02  0.000000000E+00  0.00000E+00  9.000E+00
      21    -1     0     0   502   501  0.000000000E+00  0.000000000E+00 -1.125987381E-02  1.125987381E-02  0.000000000E+00  0.00000E+00  9.000E+00
      23     2     1     2     0     0  4.015858867E-02 -5.372655661E-01  7.498953276E+01  7.500776411E+01  1.563453064E+00  0.00000E+00  9.000E+00
      11     1     3     3     0     0 -7.573529658E-01 -1.745672779E-01  3.447871384E+01  3.448747259E+01  5.110000000E-04  0.00000E+00  9.000E+00
     -11     1     3     3     0     0  7.975115545E-01 -3.626982882E-01  4.051081893E+01  4.052029152E+01  5.110000000E-04  0.00000E+00  9.000E+00
      -2     1     1     2     0   501 -4.015858867E-02  5.372655661E-01  3.384111104E+01  3.384539944E+01  0.000000000E+00  0.00000E+00  9.000E+00
#rwgt            1           7  -2000530.9130578600                3     3684871           0
<weights>
-.11145E+08
-.14901E+08
-.64666E+07
-.18121E+08
-.51815E+07
-.91657E+07
-.13909E+08
-.11178E+08
-.11113E+08
-.10855E+08
-.10851E+08
-.10977E+08
-.11026E+08
-.10871E+08
-.10860E+08
-.11217E+08
-.11200E+08
-.11427E+08
-.11462E+08
-.11453E+08
-.11406E+08
-.11459E+08
-.11483E+08
-.11365E+08
-.11319E+08
-.11276E+08
-.11285E+08
-.11401E+08
-.11342E+08
-.11436E+08
-.11471E+08
-.11175E+08
-.11212E+08
-.11140E+08
-.11172E+08
-.11211E+08
-.11096E+08
-.11111E+08
-.11108E+08
-.11160E+08
-.11133E+08
-.11178E+08
-.11111E+08
-.11467E+08
-.10849E+08
</weights>
</event>
<event>
      6  10001 -1.11453E+07  8.94427E-01 -1.00000E+00  3.42874E-01
      -2    -1     0     0     0   502  0.000000000E+00  0.000000000E+00  4.165388849E-03  4.165388849E-03  0.000000000E+00  0.00000E+00  9.000E+00
       2    -1     0     0   501     0  0.000000000E+00  0.000000000E+00 -6.279970638E+02  6.279970638E+02  0.000000000E+00  0.00000E+00  9.000E+00
      23     2     1     2     0     0 -3.475827585E-01 -9.265072467E-01 -5.199065039E+02  5.199103049E+02  1.724280103E+00  0.00000E+00  9.000E+00
      11     1     3     3     0     0  7.032739238E-01 -4.012795708E-01 -2.275625016E+02  2.275639421E+02  5.110000000E-04  0.00000E+00  9.000E+00
     -11     1     3     3     0     0 -1.050856682E+00 -5.252276759E-01 -2.923440023E+02  2.923463628E+02  5.110000000E-04  0.00000E+00  9.000E+00
      21     1     1     2   501   502  3.475827585E-01  9.265072467E-01 -1.080863946E+02  1.080909243E+02  1.907348633E-06  0.00000E+00  9.000E+00
#rwgt            1           8  -884776.20366603381                3     3685305           0
<weights>
-.11145E+08
-.12768E+08
-.91900E+07
-.15518E+08
-.73635E+07
-.91702E+07
-.13910E+08
-.11132E+08
-.11158E+08
-.11163E+08
-.11144E+08
-.10947E+08
-.11367E+08
-.11154E+08
-.11149E+08
-.11158E+08
-.11116E+08
-.11541E+08
-.10601E+08
-.10520E+08
-.11591E+08
-.11114E+08
-.11172E+08
-.10983E+08
-.11275E+08
-.11460E+08
-.10953E+08
-.10642E+08
-.11722E+08
-.11056E+08
-.11203E+08
-.11062E+08
-.11226E+08
-.11639E+08
-.10552E+08
-.11074E+08
-.11211E+08
-.11132E+08
-.11167E+08
-.11290E+08
-.11016E+08
-.11125E+08
-.11166E+08
-.11136E+08
-.11155E+08
</weights>
</event>
<event>
      7  10001  1.11453E+07  8.94427E-01 -1.00000E+00  6.07649E-01
       2    -1     0     0   501     0  0.000000000E+00  0.000000000E+00  6.988972147E+00  6.988972147E+00  0.000000000E+00  0.00000E+00  9.000E+00
      21    -1     0     0   511   502  0.000000000E+00  0.000000000E+00 -2.875142175E+00  2.875142175E+00  0.000000000E+00  0.00000E+00  9.000E+00
      23     2     1     2     0     0 -2.624113139E-01  4.281514102E-02  6.771504733E+00  7.026013130E+00  1.854963968E+00  0.00000E+00  9.000E+00
      11     1     3     3     0     0  5.434487451E-01 -3.746585526E-01  1.103860663E+00  1.286162584E+00  5.110000000E-04  0.00000E+00  9.000E+00
     -11     1     3     3     0     0 -8.058600589E-01  4.174736937E-01  5.667644070E+00  5.739850546E+00  5.110000000E-04  0.00000E+00  9.000E+00
      21     1     1     2   501   502  3.547344390E-01 -3.898848686E-01 -2.166082495E+00  2.229295877E+00  1.548574097E-07  0.00000E+00  9.000E+00
       2     1     1     2   511     0 -9.232312510E-02  3.470697275E-01 -4.915922659E-01  6.088053146E-01  0.000000000E+00  0.00000E+00  9.000E+00
#rwgt            2         249   2984720.2472311300                3     3687835           0
<weights>
0.11145E+08
0.10947E+08
0.11140E+08
0.13304E+08
0.89263E+07
0.91702E+07
0.13910E+08
0.11203E+08
0.11084E+08
0.10869E+08
0.10881E+08
0.10976E+08
0.11049E+08
0.10895E+08
0.10889E+08
0.11221E+08
0.11175E+08
0.11403E+08
0.11409E+08
0.11405E+08
0.11382E+08
0.11422E+08
0.11449E+08
0.11285E+08
0.11338E+08
0.11289E+08
0.11123E+08
0.11371E+08
0.11304E+08
0.11392E+08
0.11434E+08
0.11163E+08
0.11213E+08
0.11140E+08
0.11167E+08
0.11239E+08
0.11066E+08
0.11051E+08
0.11166E+08
0.11145E+08
0.11146E+08
0.11170E+08
0.11119E+08
0.11437E+08
0.10874E+08
</weights>
</event>
<event>
      6  10001  1.11453E+07  8.94427E-01 -1.00000E+00  5.91944E-01
       2    -1     0     0   501     0  0.000000000E+00  0.000000000E+00  1.275648893E+00  1.275648893E+00  0.000000000E+00  0.00000E+00  9.000E+00
      -2    -1     0     0     0   502  0.000000000E+00  0.000000000E+00 -1.349764921E+00  1.349764921E+00  0.000000000E+00  0.00000E+00  9.000E+00
      23     2     1     2     0     0 -3.274935308E-01  2.196767202E-01 -9.351255881E-01  1.678393573E+00  1.336800376E+00  0.00000E+00  9.000E+00
      11     1     3     3     0     0  3.824063155E-01 -8.988969382E-02  8.068385139E-02  4.010297897E-01  5.110000000E-04  0.00000E+00  9.000E+00
     -11     1     3     3     0     0 -7.098998463E-01  3.095664141E-01 -1.015809440E+00  1.277363783E+00  5.110000000E-04  0.00000E+00  9.000E+00
      21     1     1     2   501   502  3.274935308E-01 -2.196767202E-01  8.610095606E-01  9.470202414E-01  2.356080458E-08  0.00000E+00  9.000E+00
#rwgt            1          23   166019.71457889784                3     3688542           0
<weights>
0.11145E+08
0.13476E+08
0.95386E+07
0.42578E+07
0.14654E+08
0.16900E+08
0.20446E+07
0.10438E+08
0.11913E+08
0.10705E+08
0.10531E+08
0.10985E+08
0.10728E+08
0.10665E+08
0.10565E+08
0.11033E+08
0.11676E+08
0.11798E+08
0.11646E+08
0.11599E+08
0.11779E+08
0.11832E+08
0.11741E+08
0.11815E+08
0.11201E+08
0.11654E+08
0.11004E+08
0.11861E+08
0.11327E+08
0.11870E+08
0.11778E+08
0.11123E+08
0.11373E+08
0.11166E+08
0.11195E+08
0.10354E+08
0.12020E+08
0.11499E+08
0.10698E+08
0.11241E+08
0.11048E+08
0.11368E+08
0.10908E+08
0.11746E+08
0.10609E+08
</weights>
</event>
<event>
      6  10001 -1.11453E+07  8.94427E-01 -1.00000E+00  3.15800E-01
      21    -1     0     0   502   501  0.000000000E+00  0.000000000E+00  1.728682357E-02  1.728682357E-02  0.000000000E+00  0.00000E+00  9.000E+00
      -2    -1     0     0     0   502  0.000000000E+00  0.000000000E+00 -1.626238267E+02  1.626238267E+02  0.000000000E+00  0.00000E+00  9.000E+00
      23     2     1     2     0     0 -1.230112330E+00  1.767458329E-01 -1.258697433E+02  1.258833030E+02  1.367211712E+00  0.00000E+00  9.000E+00
      11     1     3     3     0     0 -1.519404415E+00  2.969485904E-02 -1.006604749E+02  1.006719459E+02  5.110000000E-04  0.00000E+00  9.000E+00
     -11     1     3     3     0     0  2.892920848E-01  1.470509738E-01 -2.520926841E+01  2.521135712E+01  5.110000000E-04  0.00000E+00  9.000E+00
      -2     1     1     2     0   501  1.230112330E+00 -1.767458329E-01 -3.673679656E+01  3.675781056E+01  0.000000000E+00  0.00000E+00  9.000E+00
#rwgt            1          14  -2872397.6868282906                3     3690230           0
<weights>
-.11145E+08
-.12140E+08
-.99674E+07
-.14755E+08
-.79864E+07
-.91702E+07
-.13910E+08
-.11100E+08
-.11186E+08
-.11272E+08
-.11267E+08
-.11124E+08
-.11217E+08
-.11283E+08
-.11278E+08
-.11040E+08
-.11191E+08
-.11076E+08
-.10917E+08
-.10893E+08
-.11097E+08
-.11000E+08
-.10985E+08
-.11126E+08
-.10994E+08
-.11039E+08
-.11161E+08
-.11018E+08
-.10968E+08
-.11014E+08
-.11012E+08
-.11197E+08
-.11045E+08
-.11302E+08
-.10990E+08
-.11114E+08
-.11152E+08
-.11231E+08
-.11070E+08
-.11108E+08
-.11163E+08
-.11295E+08
-.10985E+08
-.10996E+08
-.11279E+08
</weights>
</event>
<event>
      6  10001 -1.11453E+07  8.94427E-01 -1.00000E+00  1.75369E-01
      -2    -1     0     0     0   502  0.000000000E+00  0.000000000E+00  1.089289894E+02  1.089289894E+02  0.000000000E+00  0.00000E+00  9.000E+00
      21    -1     0     0   502   501  0.000000000E+00  0.000000000E+00 -6.496234619E-03  6.496234619E-03  0.000000000E+00  0.00000E+00  9.000E+00
      23     2     1     2     0     0  9.603789260E-02  3.147553147E-01  1.009675201E+02  1.009737088E+02  1.068389348E+00  0.00000E+00  9.000E+00
      11     1     3     3     0     0  4.824644168E-02 -3.993322327E-01  3.628504088E+01  3.628727030E+01  5.110000000E-04  0.00000E+00  9.000E+00
     -11     1     3     3     0     0  4.779145092E-02  7.140875474E-01  6.468247927E+01  6.468643853E+01  5.110000000E-04  0.00000E+00  9.000E+00
      -2     1     1     2     0   501 -9.603789260E-02 -3.147553147E-01  7.954973058E+00  7.961776845E+00  0.000000000E+00  0.00000E+00  9.000E+00
#rwgt            1           7  -2853019.5949462727                3     3690459           0
<weights>
-.11145E+08
-.12041E+08
-.10060E+08
-.14642E+08
-.80608E+07
-.91653E+07
-.13909E+08
-.11174E+08
-.11117E+08
-.10827E+08
-.10820E+08
-.10963E+08
-.11010E+08
-.10846E+08
-.10830E+08
-.11225E+08
-.11207E+08
-.11456E+08
-.11495E+08
-.11484E+08
-.11433E+08
-.11494E+08
-.11514E+08
-.11400E+08
-.11329E+08
-.11286E+08
-.11331E+08
-.11429E+08
-.11366E+08
-.11471E+08
-.11506E+08
-.11182E+08
-.11217E+08
-.11138E+08
-.11177E+08
-.11211E+08
-.11099E+08
-.11124E+08
-.11092E+08
-.11164E+08
-.11129E+08
-.11184E+08
-.11105E+08
-.11499E+08
-.10819E+08
</weights>
</event>
<event>
      7  10001  1.11453E+07  1.83017E+00 -1.00000E+00  3.71257E-01
       2    -1     0     0   501     0  0.000000000E+00  0.000000000E+00  7.736729513E+01  7.736729513E+01  0.000000000E+00  0.00000E+00  9.000E+00
      21    -1     0     0   502   511  0.000000000E+00  0.000000000E+00 -1.029883909E+00  1.029883909E+00  0.000000000E+00  0.00000E+00  9.000E+00
      23     2     1     2     0     0 -1.481147657E-01  3.659729686E-01  6.531150022E+01  6.532615294E+01  1.326017710E+00  0.00000E+00  9.000E+00
      11     1     3     3     0     0 -4.096520184E-01  4.433763224E-01  6.214383038E+01  6.214676220E+01  5.110000000E-04  0.00000E+00  9.000E+00
     -11     1     3     3     0     0  2.615372527E-01 -7.740335374E-02  3.167669836E+00  3.179390738E+00  5.110000000E-04  0.00000E+00  9.000E+00
       2     1     1     2   502     0  1.919503479E+00  9.415249451E-02  1.107469216E+01  1.124020305E+01  0.000000000E+00  0.00000E+00  9.000E+00
      21     1     1     2   501   511 -1.771388713E+00 -4.601254631E-01 -4.878115729E-02  1.830823044E+00  1.109447179E-07  0.00000E+00  9.000E+00
#rwgt            1          24   1025001.0672680057                3     3693713           0
<weights>
0.11145E+08
0.16465E+08
0.51789E+07
0.93360E+07
0.10943E+08
0.16312E+08
0.29458E+07
0.11156E+08
0.11149E+08
0.99026E+07
0.97778E+07
0.10595E+08
0.10411E+08
0.98609E+07
0.97910E+07
0.11349E+08
0.11695E+08
0.12453E+08
0.12820E+08
0.12774E+08
0.12355E+08
0.12678E+08
0.12784E+08
0.12436E+08
0.11825E+08
0.11743E+08
0.12342E+08
0.12466E+08
0.12165E+08
0.12656E+08
0.12726E+08
0.11370E+08
0.11397E+08
0.11139E+08
0.11266E+08
0.11223E+08
0.11146E+08
0.11558E+08
0.10450E+08
0.11436E+08
0.10889E+08
0.11333E+08
0.10949E+08
0.12637E+08
0.98032E+07
</weights>
</event>
<event>
      6  10001 -1.11453E+07  8.94427E-01 -1.00000E+00  2.47234E-01
      -2    -1     0     0     0   502  0.000000000E+00  0.000000000E+00  1.159508852E-02  1.159508852E-02  0.000000000E+00  0.00000E+00  9.000E+00
       2    -1     0     0   501     0  0.000000000E+00  0.000000000E+00 -6.723245124E+01  6.723245124E+01  0.000000000E+00  0.00000E+00  9.000E+00
      23     2     1     2     0     0  2.383125271E-02 -4.051991281E-01 -6.018733040E+01  6.019881824E+01  1.103731431E+00  0.00000E+00  9.000E+00
      11     1     3     3     0     0 -5.041962948E-01 -4.428263331E-02 -2.002475140E+01  2.003114684E+01  5.110000000E-04  0.00000E+00  9.000E+00
     -11     1     3     3     0     0  5.280275475E-01 -3.609164947E-01 -4.016257899E+01  4.016767140E+01  5.110000000E-04  0.00000E+00  9.000E+00
      21     1     1     2   501   502 -2.383125271E-02  4.051991281E-01 -7.033525754E+00  7.045228087E+00  0.000000000E+00  0.00000E+00  9.000E+00
#rwgt            1           8  -359818.61539787229                3     3746245           0
<weights>
-.11145E+08
-.12900E+08
-.92666E+07
-.15678E+08
-.74249E+07
-.91702E+07
-.13910E+08
-.11172E+08
-.11118E+08
-.11113E+08
-.11144E+08
-.11160E+08
-.11084E+08
-.11140E+08
-.11143E+08
-.11132E+08
-.11134E+08
-.11067E+08
-.11238E+08
-.11248E+08
-.11059E+08
-.11144E+08
-.11136E+08
-.11235E+08
-.11056E+08
-.11082E+08
-.11171E+08
-.11269E+08
-.10939E+08
-.11149E+08
-.11126E+08
-.11138E+08
-.11149E+08
-.11072E+08
-.11241E+08
-.11128E+08
-.11159E+08
-.11072E+08
-.11230E+08
-.11084E+08
-.11194E+08
-.11202E+08
-.11085E+08
-.11152E+08
-.11133E+08
</weights>
</event>
<event>
      6  10001 -1.11453E+07  8.94427E-01 -1.00000E+00  5.85050E-01
      21    -1     0     0   502   501  0.000000000E+00  0.000000000E+00  2.307365396E-02  2.307365396E-02  0.000000000E+00  0.00000E+00  9.000E+00
      -4    -1     0     0     0   502  0.000000000E+00  0.000000000E+00 -6.691082895E+01  6.691082895E+01  0.000000000E+00  0.00000E+00  9.000E+00
      23     2     1     2     0     0  6.054698046E-02 -3.701189390E-01 -6.470440259E+01  6.471857351E+01  1.301302567E+00  0.00000E+00  9.000E+00
      11     1     3     3     0     0  2.397316287E-01  4.525931670E-01 -2.486397776E+01  2.486925214E+01  5.110000000E-04  0.00000E+00  9.000E+00
     -11     1     3     3     0     0 -1.791846482E-01 -8.227121060E-01 -3.984042483E+01  3.984932137E+01  5.110000000E-04  0.00000E+00  9.000E+00
      -4     1     1     2     0   501 -6.054698046E-02  3.701189390E-01 -2.183352703E+00  2.215329094E+00  0.000000000E+00  0.00000E+00  9.000E+00
#rwgt            1          12  -3613022.7568877190                3     3747453           0
<weights>
-.11145E+08
-.12736E+08
-.93792E+07
-.15479E+08
-.75151E+07
-.91702E+07
-.13910E+08
-.11208E+08
-.11084E+08
-.11044E+08
-.11119E+08
-.10998E+08
-.11245E+08
-.11127E+08
-.11133E+08
-.11167E+08
-.11068E+08
-.11148E+08
-.11104E+08
-.11098E+08
-.11154E+08
-.11136E+08
-.11117E+08
-.11120E+08
-.11168E+08
-.11168E+08
-.11116E+08
-.11138E+08
-.11081E+08
-.11084E+08
-.11134E+08
-.11086E+08
-.11204E+08
-.11166E+08
-.11119E+08
-.11277E+08
-.11025E+08
-.10804E+08
-.11547E+08
-.11029E+08
-.11253E+08
-.11101E+08
-.11193E+08
-.11181E+08
-.11092E+08
</weights>
</event>
<event>
      7  10001  1.11453E+07  1.20879E+00 -1.00000E+00  4.94299E-01
      21    -1     0     0   502   501  0.000000000E+00  0.000000000E+00  4.337400222E-02  4.337400222E-02  0.000000000E+00  0.00000E+00  9.000E+00
       2    -1     0     0   501     0  0.000000000E+00  0.000000000E+00 -2.711677469E+01  2.711677469E+01  0.000000000E+00  0.00000E+00  9.000E+00
      23     2     1     2     0     0  1.480522413E-01  1.313411696E-01 -1.670840395E+01  1.674563077E+01  1.098279363E+00  0.00000E+00  9.000E+00
      11     1     3     3     0     0  1.821308298E-01  1.321526080E-01 -6.621707867E-01  6.993613965E-01  5.110000000E-04  0.00000E+00  9.000E+00
     -11     1     3     3     0     0 -3.407858847E-02 -8.114384632E-04 -1.604623316E+01  1.604626938E+01  5.110000000E-04  0.00000E+00  9.000E+00
       2     1     1     2   511     0  1.066935919E-01 -1.933423588E-01 -9.657171731E+00  9.659696198E+00  0.000000000E+00  0.00000E+00  9.000E+00
      21     1     1     2   502   511 -2.547458333E-01  6.200118924E-02 -7.078250123E-01  7.548217240E-01  2.580956828E-08  0.00000E+00  9.000E+00
#rwgt            2         189   20559171.534814857                3     3749754           0
<weights>
0.11145E+08
0.11763E+08
0.10272E+08
0.14296E+08
0.82302E+07
0.91702E+07
0.13910E+08
0.11198E+08
0.11092E+08
0.10999E+08
0.11042E+08
0.11110E+08
0.11027E+08
0.11032E+08
0.11042E+08
0.11085E+08
0.11264E+08
0.11146E+08
0.11387E+08
0.11396E+08
0.11135E+08
0.11252E+08
0.11263E+08
0.11242E+08
0.11200E+08
0.11197E+08
0.11116E+08
0.11373E+08
0.10979E+08
0.11240E+08
0.11230E+08
0.11145E+08
0.11177E+08
0.11079E+08
0.11246E+08
0.11110E+08
0.11186E+08
0.10986E+08
0.11280E+08
0.11086E+08
0.11193E+08
0.11211E+08
0.11075E+08
0.11268E+08
0.11026E+08
</weights>
</event>
<event>
      7  10001  1.11453E+07  3.05820E+00 -1.00000E+00  2.89886E-01
      -1    -1     0     0     0   501  0.000000000E+00  0.000000000E+00  1.404728643E+01  1.404728643E+01  0.000000000E+00  0.00000E+00  9.000E+00
       4    -1     0     0   501     0  0.000000000E+00  0.000000000E+00 -1.930579618E+01  1.930579618E+01  0.000000000E+00  0.00000E+00  9.000E+00
      23     2     1     2     0     0  2.443643183E-01 -2.975273990E+00 -1.815946467E+01  1.928327773E+01  5.759051440E+00  0.00000E+00  9.000E+00
      11     1     3     3     0     0  2.494818879E+00 -1.900222713E+00 -1.462498713E+01  1.495744686E+01  5.110000000E-04  0.00000E+00  9.000E+00
     -11     1     3     3     0     0 -2.250454561E+00 -1.075051277E+00 -3.534477539E+00  4.325830870E+00  5.110000000E-04  0.00000E+00  9.000E+00
       4     1     1     2   502     0 -1.845354904E+00  3.696196879E-01  1.992639600E+00  2.740906057E+00  0.000000000E+00  0.00000E+00  9.000E+00
      -1     1     1     2     0   502  1.600990586E+00  2.605654302E+00  1.090831532E+01  1.132889882E+01  0.000000000E+00  0.00000E+00  9.000E+00
#rwgt            1          19   2240681.6526650069                3     3750347           0
<weights>
0.11145E+08
0.11957E+08
0.10398E+08
0.12289E+08
0.98388E+07
0.10711E+08
0.11544E+08
0.11254E+08
0.11034E+08
0.10770E+08
0.10832E+08
0.10914E+08
0.11045E+08
0.10816E+08
0.10832E+08
0.11215E+08
0.11210E+08
0.11447E+08
0.11495E+08
0.11491E+08
0.11426E+08
0.11465E+08
0.11544E+08
0.11254E+08
0.11463E+08
0.11425E+08
0.11018E+08
0.11437E+08
0.11282E+08
0.11409E+08
0.11484E+08
0.11132E+08
0.11261E+08
0.11156E+08
0.11149E+08
0.11328E+08
0.10984E+08
0.10865E+08
0.11317E+08
0.11134E+08
0.11157E+08
0.11154E+08
0.11137E+08
0.11511E+08
0.10802E+08
</weights>
</event>
<event>
      6  10001 -1.11453E+07  8.94427E-01 -1.00000E+00  1.85400E-01
       2    -1     0     0   501     0  0.000000000E+00  0.000000000E+00  5.698305916E+02  5.698305916E+02  0.000000000E+00  0.00000E+00  9.000E+00
      21    -1     0     0   502   501  0.000000000E+00  0.000000000E+00 -3.787429902E-03  3.787429902E-03  0.000000000E+00  0.00000E+00  9.000E+00
      23     2     1     2     0     0 -3.009606136E-01  1.128145661E-01  5.275824709E+02  5.275888231E+02  2.568915992E+00  0.00000E+00  9.000E+00
      11     1     3     3     0     0 -8.724068336E-02  8.459687607E-01  4.754357450E+02  4.754365057E+02  5.110000000E-04  0.00000E+00  9.000E+00
     -11     1     3     3     0     0 -2.137199302E-01 -7.331541946E-01  5.214672591E+01  5.215231744E+01  5.110000000E-04  0.00000E+00  9.000E+00
       2     1     1     2   502     0  3.009606136E-01 -1.128145661E-01  4.224433323E+01  4.224555591E+01  0.000000000E+00  0.00000E+00  9.000E+00
#rwgt            1          24  -82388509.915483728                3     3760698           0
<weights>
-.11145E+08
-.11375E+08
-.10781E+08
-.13833E+08
-.86388E+07
-.91646E+07
-.13909E+08
-.11178E+08
-.11113E+08
-.10834E+08
-.10829E+08
-.10965E+08
-.11015E+08
-.10853E+08
-.10838E+08
-.11225E+08
-.11203E+08
-.11448E+08
-.11484E+08
-.11473E+08
-.11426E+08
-.11483E+08
-.11505E+08
-.11386E+08
-.11329E+08
-.11284E+08
-.11310E+08
-.11420E+08
-.11358E+08
-.11460E+08
-.11496E+08
-.11179E+08
-.11216E+08
-.11139E+08
-.11175E+08
-.11213E+08
-.11095E+08
-.11114E+08
-.11102E+08
-.11162E+08
-.11132E+08
-.11182E+08
-.11107E+08
-.11490E+08
-.10827E+08
</weights>
</event>
<event>
      6  10001 -1.11453E+07  8.94427E-01 -1.00000E+00  5.50079E-01
      -4    -1     0     0     0   502  0.000000000E+00  0.000000000E+00  1.256111776E+02  1.256111776E+02  0.000000000E+00  0.00000E+00  9.000E+00
      21    -1     0     0   502   501  0.000000000E+00  0.000000000E+00 -1.921582491E-02  1.921582491E-02  0.000000000E+00  0.00000E+00  9.000E+00
      23     2     1     2     0     0 -3.926165613E-01  6.857900242E-01  9.211080037E+01  9.213990784E+01  2.176836265E+00  0.00000E+00  9.000E+00
      11     1     3     3     0     0  4.063210189E-01  1.247617860E+00  5.958977664E+01  5.960422071E+01  5.110000000E-04  0.00000E+00  9.000E+00
     -11     1     3     3     0     0 -7.989375802E-01 -5.618278353E-01  3.252102374E+01  3.253568713E+01  5.110000000E-04  0.00000E+00  9.000E+00
      -4     1     1     2     0   501  3.926165613E-01 -6.857900242E-01  3.348116144E+01  3.349048562E+01  0.000000000E+00  0.00000E+00  9.000E+00
#rwgt            1           3  -1104356.5462720464                3     3761192           0
<weights>
-.11145E+08
-.12981E+08
-.91178E+07
-.15788E+08
-.73060E+07
-.91639E+07
-.13909E+08
-.11171E+08
-.11121E+08
-.10823E+08
-.10812E+08
-.10962E+08
-.11005E+08
-.10840E+08
-.10823E+08
-.11226E+08
-.11212E+08
-.11463E+08
-.11506E+08
-.11493E+08
-.11440E+08
-.11503E+08
-.11522E+08
-.11414E+08
-.11328E+08
-.11287E+08
-.11357E+08
-.11436E+08
-.11373E+08
-.11481E+08
-.11515E+08
-.11184E+08
-.11217E+08
-.11138E+08
-.11178E+08
-.11208E+08
-.11102E+08
-.11134E+08
-.11082E+08
-.11167E+08
-.11127E+08
-.11185E+08
-.11103E+08
-.11507E+08
-.10813E+08
</weights>
</event>
<event>
      7  10001  1.11453E+07  1.24733E+00 -1.00000E+00  4.83916E-01
       2    -1     0     0   501     0  0.000000000E+00  0.000000000E+00  3.493918549E-01  3.493918549E-01  0.000000000E+00  0.00000E+00  9.000E+00
       1    -1     0     0   502     0  0.000000000E+00  0.000000000E+00 -2.674263418E+02  2.674263418E+02  0.000000000E+00  0.00000E+00  9.000E+00
      23     2     1     2     0     0  1.181102500E+00  4.605607207E-01 -3.477159644E+00  4.139767810E+00  1.854701873E+00  0.00000E+00  9.000E+00
      11     1     3     3     0     0 -3.902149716E-01 -2.283806952E-01 -1.244029930E+00  1.323645041E+00  5.110000000E-04  0.00000E+00  9.000E+00
     -11     1     3     3     0     0  1.571317471E+00  6.889414160E-01 -2.233129714E+00  2.816122769E+00  5.110000000E-04  0.00000E+00  9.000E+00
       2     1     1     2   502     0 -5.764289996E-01  6.304003326E-01 -1.100711498E+01  1.104021083E+01  0.000000000E+00  0.00000E+00  9.000E+00
       1     1     1     2   501     0 -6.046735002E-01 -1.090961053E+00 -2.525926753E+02  2.525957550E+02  0.000000000E+00  0.00000E+00  9.000E+00
#rwgt            1          24   1477734.2028920306                3     3764911           0
<weights>
0.11145E+08
0.12823E+08
0.93852E+07
0.12309E+08
0.96803E+07
0.11395E+08
0.10494E+08
0.11262E+08
0.11024E+08
0.10633E+08
0.10661E+08
0.10866E+08
0.10938E+08
0.10664E+08
0.10664E+08
0.11259E+08
0.11262E+08
0.11626E+08
0.11675E+08
0.11673E+08
0.11586E+08
0.11662E+08
0.11745E+08
0.11368E+08
0.11560E+08
0.11492E+08
0.11018E+08
0.11599E+08
0.11426E+08
0.11612E+08
0.11686E+08
0.11181E+08
0.11269E+08
0.11142E+08
0.11178E+08
0.11324E+08
0.10992E+08
0.10973E+08
0.11126E+08
0.11186E+08
0.11111E+08
0.11189E+08
0.11100E+08
0.11691E+08
0.10642E+08
</weights>
</event>
<event>
      7  10001  1.11453E+07  1.72364E+00 -1.00000E+00  3.83997E-01
      21    -1     0     0   502   511  0.000000000E+00  0.000000000E+00  4.097129661E+01  4.097129661E+01  0.000000000E+00  0.00000E+00  9.000E+00
       1    -1     0     0   501     0  0.000000000E+00  0.000000000E+00 -9.239277497E+00  9.239277497E+00  0.000000000E+00  0.00000E+00  9.000E+00
      23     2     1     2     0     0 -1.277496289E+00 -3.099398309E-01 -4.551242605E+00  5.142321379E+00  2.000400070E+00  0.00000E+00  9.000E+00
      11     1     3     3     0     0  4.733957387E-02 -8.469352931E-02 -3.314741139E+00  3.316160899E+00  5.110000000E-04  0.00000E+00  9.000E+00
     -11     1     3     3     0     0 -1.324835862E+00 -2.252463016E-01 -1.236501466E+00  1.826160479E+00  5.110000000E-04  0.00000E+00  9.000E+00
       1     1     1     2   502     0  1.899535412E+00  1.917421720E+00 -3.957685209E+00  4.790408442E+00  0.000000000E+00  0.00000E+00  9.000E+00
      21     1     1     2   501   511 -6.220391233E-01 -1.607481889E+00  4.024094693E+01  4.027784428E+01  0.000000000E+00  0.00000E+00  9.000E+00
#rwgt            1          16   154102.50646179527                3     3849718           0
<weights>
0.11145E+08
0.13069E+08
0.93604E+07
0.11513E+08
0.10210E+08
0.12057E+08
0.94777E+07
0.11093E+08
0.11189E+08
0.10883E+08
0.10839E+08
0.10909E+08
0.11077E+08
0.10879E+08
0.10866E+08
0.11172E+08
0.11201E+08
0.11556E+08
0.11232E+08
0.11177E+08
0.11561E+08
0.11437E+08
0.11491E+08
0.11296E+08
0.11362E+08
0.11507E+08
0.10962E+08
0.11294E+08
0.11378E+08
0.11408E+08
0.11465E+08
0.11142E+08
0.11240E+08
0.11297E+08
0.10957E+08
0.10947E+08
0.11362E+08
0.11093E+08
0.11090E+08
0.11142E+08
0.11141E+08
0.11251E+08
0.11033E+08
0.11451E+08
0.10864E+08
</weights>
</event>
<event>
      6  10001  1.11453E+07  8.94427E-01 -1.00000E+00  6.06743E-01
       2    -1     0     0   501     0  0.000000000E+00  0.000000000E+00  1.752170912E-01  1.752170912E-01  0.000000000E+00  0.00000E+00  9.000E+00
      21    -1     0     0   502   501  0.000000000E+00  0.000000000E+00 -2.111761122E+01  2.111761122E+01  0.000000000E+00  0.00000E+00  9.000E+00
      23     2     1     2     0     0  1.441253298E-01  3.980875965E-01 -2.153800004E+00  2.499464721E+00  1.195501397E+00  0.00000E+00  9.000E+00
      11     1     3     3     0     0  3.349495133E-01  2.827162700E-01 -2.223144014E+00  2.265941136E+00  5.110000000E-04  0.00000E+00  9.000E+00
     -11     1     3     3     0     0 -1.908241836E-01  1.153713265E-01  6.934400956E-02  2.335235851E-01  5.110000000E-04  0.00000E+00  9.000E+00
       2     1     1     2   502     0 -1.441253298E-01 -3.980875965E-01 -1.878859412E+01  1.879336359E+01  0.000000000E+00  0.00000E+00  9.000E+00
#rwgt            1          24   2056150.5749544019                3     3855676           0
<weights>
0.11145E+08
0.12666E+08
0.94929E+07
0.12712E+08
0.93890E+07
0.10998E+08
0.11104E+08
0.11276E+08
0.11011E+08
0.10643E+08
0.10703E+08
0.10867E+08
0.10959E+08
0.10687E+08
0.10701E+08
0.11255E+08
0.11237E+08
0.11579E+08
0.11644E+08
0.11640E+08
0.11546E+08
0.11608E+08
0.11714E+08
0.11316E+08
0.11575E+08
0.11491E+08
0.11000E+08
0.11547E+08
0.11383E+08
0.11546E+08
0.11635E+08
0.11153E+08
0.11283E+08
0.11150E+08
0.11164E+08
0.11346E+08
0.10971E+08
0.10871E+08
0.11242E+08
0.11164E+08
0.11129E+08
0.11184E+08
0.11105E+08
0.11655E+08
0.10672E+08
</weights>
</event>
<event>
      7  10001  1.11453E+07  2.79958E+00 -1.00000E+00  3.01184E-01
       2    -1     0     0   502     0  0.000000000E+00  0.000000000E+00  3.858662870E+02  3.858662870E+02  0.000000000E+00  0.00000E+00  9.000E+00
      -2    -1     0     0     0   502  0.000000000E+00  0.000000000E+00 -1.348484558E+00  1.348484558E+00  0.000000000E+00  0.00000E+00  9.000E+00
      23     2     1     2     0     0  1.235615790E+00  1.617952411E+00  2.405148632E+00  3.994518183E+00  2.454978450E+00  0.00000E+00  9.000E+00
      11     1     3     3     0     0  3.001848721E-01  1.781251469E+00  5.135456043E-01  1.877950239E+00  5.110000000E-04  0.00000E+00  9.000E+00
     -11     1     3     3     0     0  9.354309180E-01 -1.632990581E-01  1.891603028E+00  2.116567944E+00  5.110000000E-04  0.00000E+00  9.000E+00
      -2     1     1     2     0   501 -2.634675910E+00 -4.042881062E+00  1.006449800E+01  1.116156460E+01  0.000000000E+00  0.00000E+00  9.000E+00
       2     1     1     2   501     0  1.399060120E+00  2.424928652E+00  3.720481558E+02  3.720586888E+02  0.000000000E+00  0.00000E+00  9.000E+00
#rwgt            1          14   753130.27733196691                3     3973576           0
<weights>
0.11145E+08
0.12355E+08
0.98979E+07
0.12517E+08
0.95929E+07
0.10875E+08
0.11293E+08
0.10978E+08
0.11328E+08
0.10823E+08
0.10782E+08
0.10980E+08
0.10955E+08
0.10830E+08
0.10797E+08
0.11162E+08
0.11325E+08
0.11516E+08
0.11475E+08
0.11458E+08
0.11496E+08
0.11538E+08
0.11532E+08
0.11439E+08
0.11297E+08
0.11399E+08
0.11085E+08
0.11513E+08
0.11304E+08
0.11528E+08
0.11530E+08
0.11149E+08
0.11262E+08
0.11150E+08
0.11173E+08
0.10973E+08
0.11353E+08
0.11177E+08
0.11034E+08
0.11172E+08
0.11118E+08
0.11230E+08
0.11056E+08
0.11524E+08
0.10799E+08
</weights>
</event>
<event>
      6  10001 -1.11453E+07  8.94427E-01 -1.00000E+00  5.71785E-01
       5    -1     0     0   501     0  0.000000000E+00  0.000000000E+00  8.207207903E+01  8.207207903E+01  0.000000000E+00  0.00000E+00  9.000E+00
      21    -1     0     0   502   501  0.000000000E+00  0.000000000E+00 -2.366658852E-02  2.366658852E-02  0.000000000E+00  0.00000E+00  9.000E+00
      23     2     1     2     0     0 -4.718222969E-01  4.490884539E-01  6.938105907E+01  6.941165566E+01  1.955066910E+00  0.00000E+00  9.000E+00
      11     1     3     3     0     0 -2.347095514E-01 -7.479834144E-01  3.543028234E+01  3.543895420E+01  5.110000000E-04  0.00000E+00  9.000E+00
     -11     1     3     3     0     0 -2.371127456E-01  1.197071868E+00  3.395077673E+01  3.397270146E+01  5.110000000E-04  0.00000E+00  9.000E+00
       5     1     1     2   502     0  4.718222969E-01 -4.490884539E-01  1.266735336E+01  1.268408995E+01  0.000000000E+00  0.00000E+00  9.000E+00
#rwgt            1          30  -606937.81680462684                3     3985953           0
<weights>
-.11145E+08
-.13949E+08
-.82106E+07
-.16971E+08
-.65792E+07
-.91605E+07
-.13909E+08
-.11169E+08
-.11123E+08
-.10820E+08
-.10808E+08
-.10961E+08
-.11003E+08
-.10837E+08
-.10819E+08
-.11226E+08
-.11214E+08
-.11467E+08
-.11511E+08
-.11498E+08
-.11443E+08
-.11508E+08
-.11526E+08
-.11421E+08
-.11328E+08
-.11288E+08
-.11369E+08
-.11440E+08
-.11377E+08
-.11486E+08
-.11520E+08
-.11185E+08
-.11217E+08
-.11137E+08
-.11179E+08
-.11206E+08
-.11104E+08
-.11139E+08
-.11077E+08
-.11168E+08
-.11126E+08
-.11186E+08
-.11103E+08
-.11511E+08
-.10809E+08
</weights>
</event>
<event>
      6  10001 -1.11453E+07  8.94427E-01 -1.00000E+00  4.27693E-01
      -4    -1     0     0     0   502  0.000000000E+00  0.000000000E+00  3.201912571E+00  3.201912571E+00  0.000000000E+00  0.00000E+00  9.000E+00
      21    -1     0     0   502   501  0.000000000E+00  0.000000000E+00 -1.655008071E-01  1.655008071E-01  0.000000000E+00  0.00000E+00  9.000E+00
      23     2     1     2     0     0 -2.806445364E-01 -6.456593363E-02  2.688623076E+00  2.915874800E+00  1.091192784E+00  0.00000E+00  9.000E+00
      11     1     3     3     0     0 -4.784547114E-01 -8.313398622E-03  2.666427923E+00  2.709026791E+00  5.110000000E-04  0.00000E+00  9.000E+00
     -11     1     3     3     0     0  1.978101750E-01 -5.625253501E-02  2.219515260E-02  2.068480093E-01  5.110000000E-04  0.00000E+00  9.000E+00
      -4     1     1     2     0   501  2.806445364E-01  6.456593363E-02  3.477886875E-01  4.515385772E-01  0.000000000E+00  0.00000E+00  9.000E+00
#rwgt            1           3  -869268.78627059015                3     3986374           0
<weights>
-.11157E+08
-.10176E+08
-.11237E+08
-.16796E+08
-.68708E+07
-.64919E+07
-.17798E+08
-.11231E+08
-.11080E+08
-.10994E+08
-.11047E+08
-.11036E+08
-.11142E+08
-.11039E+08
-.11050E+08
-.11216E+08
-.11107E+08
-.11264E+08
-.11241E+08
-.11241E+08
-.11255E+08
-.11255E+08
-.11287E+08
-.11139E+08
-.11294E+08
-.11225E+08
-.11011E+08
-.11220E+08
-.11198E+08
-.11215E+08
-.11265E+08
-.11132E+08
-.11214E+08
-.11164E+08
-.11152E+08
-.11260E+08
-.11062E+08
-.10925E+08
-.11347E+08
-.11111E+08
-.11199E+08
-.11162E+08
-.11153E+08
-.11290E+08
-.11025E+08
</weights>
</event>
<event>
      6  10001 -1.11453E+07  8.94427E-01 -1.00000E+00  5.54804E-01
       2    -1     0     0   501     0  0.000000000E+00  0.000000000E+00  4.621474908E+01  4.621474908E+01  0.000000000E+00  0.00000E+00  9.000E+00
      21    -1     0     0   502   501  0.000000000E+00  0.000000000E+00 -2.048600532E-02  2.048600532E-02  0.000000000E+00  0.00000E+00  9.000E+00
      23     2     1     2     0     0 -6.259176239E-01 -2.754371111E-01  3.270382469E+01  3.272747560E+01  1.039168605E+00  0.00000E+00  9.000E+00
      11     1     3     3     0     0  2.260863468E-01 -3.070242845E-01  1.213427404E+01  1.214026300E+01  5.110000000E-04  0.00000E+00  9.000E+00
     -11     1     3     3     0     0 -8.520039707E-01  3.158717339E-02  2.056955065E+01  2.058721260E+01  5.110000000E-04  0.00000E+00  9.000E+00
       2     1     1     2   502     0  6.259176239E-01  2.754371111E-01  1.349043839E+01  1.350775949E+01  0.000000000E+00  0.00000E+00  9.000E+00
#rwgt            1          24  -12935696.956084587                3     4001368           0
<weights>
-.11145E+08
-.12876E+08
-.92698E+07
-.15662E+08
-.74279E+07
-.91632E+07
-.13909E+08
-.11175E+08
-.11116E+08
-.10837E+08
-.10833E+08
-.10967E+08
-.11017E+08
-.10858E+08
-.10843E+08
-.11224E+08
-.11200E+08
-.11443E+08
-.11480E+08
-.11468E+08
-.11421E+08
-.11478E+08
-.11498E+08
-.11388E+08
-.11324E+08
-.11279E+08
-.11329E+08
-.11413E+08
-.11355E+08
-.11454E+08
-.11490E+08
-.11177E+08
-.11216E+08
-.11139E+08
-.11174E+08
-.11212E+08
-.11097E+08
-.11111E+08
-.11111E+08
-.11160E+08
-.11133E+08
-.11182E+08
-.11107E+08
-.11485E+08
-.10832E+08
</weights>
</event>
<event>
      6  10001 -1.11453E+07  8.94427E-01 -1.00000E+00  5.63126E-01
      21    -1     0     0   502   501  0.000000000E+00  0.000000000E+00  4.580604523E-03  4.580604523E-03  0.000000000E+00  0.00000E+00  9.000E+00
       2    -1     0     0   501     0  0.000000000E+00  0.000000000E+00 -2.420574151E+02  2.420574151E+02  0.000000000E+00  0.00000E+00  9.000E+00
      23     2     1     2     0     0  4.310399023E-01 -9.625437632E-02 -2.216054442E+02  2.216098362E+02  1.323450684E+00  0.00000E+00  9.000E+00
      11     1     3     3     0     0 -3.055410947E-01 -4.192634047E-01 -5.488022797E+01  5.488267996E+01  5.110000000E-04  0.00000E+00  9.000E+00
     -11     1     3     3     0     0  7.365809970E-01  3.230090284E-01 -1.667252162E+02  1.667271562E+02  5.110000000E-04  0.00000E+00  9.000E+00
       2     1     1     2   502     0 -4.310399023E-01  9.625437632E-02 -2.044739030E+01  2.045215956E+01  0.000000000E+00  0.00000E+00  9.000E+00
#rwgt            1          17  -13474637.513039000                3     4004296           0
<weights>
-.11147E+08
-.11523E+08
-.10594E+08
-.14041E+08
-.84900E+07
-.91479E+07
-.13910E+08
-.11129E+08
-.11164E+08
-.11174E+08
-.11168E+08
-.11083E+08
-.11228E+08
-.11170E+08
-.11169E+08
-.11323E+08
-.10873E+08
-.11278E+08
-.10907E+08
-.10880E+08
-.11292E+08
-.11105E+08
-.11147E+08
-.11161E+08
-.11080E+08
-.11161E+08
-.11128E+08
-.10985E+08
-.11268E+08
-.11098E+08
-.11148E+08
-.11050E+08
-.11236E+08
-.11276E+08
-.10976E+08
-.11136E+08
-.11154E+08
-.11173E+08
-.11122E+08
-.11178E+08
-.11116E+08
-.11161E+08
-.11131E+08
-.11121E+08
-.11172E+08
</weights>
</event>
<event>
      6  10001 -1.11453E+07  8.94427E-01 -1.00000E+00  3.48437E-01
      21    -1     0     0   502   501  0.000000000E+00  0.000000000E+00  1.175388900E-02  1.175388900E-02  0.000000000E+00  0.00000E+00  9.000E+00
      -2    -1     0     0     0   502  0.000000000E+00  0.000000000E+00 -1.705388650E+02  1.705388650E+02  0.000000000E+00  0.00000E+00  9.000E+00
      23     2     1     2     0     0  5.155639001E-01 -9.546075048E-01 -1.117848531E+02  1.117983427E+02  1.356084572E+00  0.00000E+00  9.000E+00
      11     1     3     3     0     0  8.609857206E-01 -9.547839456E-01 -1.004509795E+02  1.004592066E+02  5.110000000E-04  0.00000E+00  9.000E+00
     -11     1     3     3     0     0 -3.454218206E-01  1.764407249E-04 -1.133387363E+01  1.133913613E+01  5.110000000E-04  0.00000E+00  9.000E+00
      -2     1     1     2     0   501 -5.155639001E-01  9.546075048E-01 -5.874225796E+01  5.875227614E+01  0.000000000E+00  0.00000E+00  9.000E+00
#rwgt            1          14  -2105657.5994351148                3     4004851           0
<weights>
-.11145E+08
-.13010E+08
-.88984E+07
-.15812E+08
-.71299E+07
-.91702E+07
-.13910E+08
-.11089E+08
-.11196E+08
-.11285E+08
-.11274E+08
-.11127E+08
-.11223E+08
-.11290E+08
-.11286E+08
-.11038E+08
-.11191E+08
-.11070E+08
-.10912E+08
-.10888E+08
-.11091E+08
-.10992E+08
-.10980E+08
-.11124E+08
-.10988E+08
-.11030E+08
-.11166E+08
-.11012E+08
-.10967E+08
-.11011E+08
-.11006E+08
-.11207E+08
-.11033E+08
-.11303E+08
-.10989E+08
-.11124E+08
-.11142E+08
-.11254E+08
-.11043E+08
-.11111E+08
-.11160E+08
-.11297E+08
-.10982E+08
-.10986E+08
-.11289E+08
</weights>
</event>
<event>
      7  10001  1.11453E+07  1.11533E+01 -1.00000E+00  1.90008E-01
      21    -1     0     0   502   501  0.000000000E+00  0.000000000E+00  1.032621417E+01  1.032621417E+01  0.000000000E+00  0.00000E+00  9.000E+00
      -3    -1     0     0     0   502  0.000000000E+00  0.000000000E+00 -2.032498694E+01  2.032498694E+01  0.000000000E+00  0.00000E+00  9.000E+00
      23     2     1     2     0     0  5.214400132E-01 -1.365899138E+00 -1.990236074E+01  2.004677621E+01  1.905700124E+00  0.00000E+00  9.000E+00
      11     1     3     3     0     0 -5.050966988E-01  1.757447708E-01 -3.592649802E+00  3.632236468E+00  5.110000000E-04  0.00000E+00  9.000E+00
     -11     1     3     3     0     0  1.026536712E+00 -1.541643909E+00 -1.630971094E+01  1.641453974E+01  5.110000000E-04  0.00000E+00  9.000E+00
      -3     1     1     2     0   511 -9.363032752E-01 -1.523041979E-01  5.043918340E-01  1.074370287E+00  0.000000000E+00  0.00000E+00  9.000E+00
      21     1     1     2   511   501  4.148632621E-01  1.518203336E+00  9.399196143E+00  9.530054619E+00  2.155678430E-06  0.00000E+00  9.000E+00
#rwgt            2         157   297139.08090447763                3     4005318           0
<weights>
0.11145E+08
0.10343E+08
0.11913E+08
0.12571E+08
0.95457E+07
0.91702E+07
0.13910E+08
0.11206E+08
0.11083E+08
0.10878E+08
0.10989E+08
0.11149E+08
0.10896E+08
0.10944E+08
0.10957E+08
0.11636E+08
0.10490E+08
0.11282E+08
0.11377E+08
0.11403E+08
0.11228E+08
0.11299E+08
0.11425E+08
0.11312E+08
0.11103E+08
0.10082E+08
0.12083E+08
0.10791E+08
0.11882E+08
0.11234E+08
0.11384E+08
0.11187E+08
0.11162E+08
0.11194E+08
0.11109E+08
0.11276E+08
0.11028E+08
0.10928E+08
0.11304E+08
0.11135E+08
0.11149E+08
0.11214E+08
0.11072E+08
0.11366E+08
0.10935E+08
</weights>
</event>
<event>
      6  10001  1.11453E+07  8.94427E-01 -1.00000E+00  6.03372E-01
       1    -1     0     0   501     0  0.000000000E+00  0.000000000E+00  4.601557132E+01  4.601557132E+01  0.000000000E+00  0.00000E+00  9.000E+00
      -1    -1     0     0     0   502  0.000000000E+00  0.000000000E+00 -6.165019984E-02  6.165019984E-02  0.000000000E+00  0.00000E+00  9.000E+00
      23     2     1     2     0     0 -4.130067045E-01  2.778935596E-01  4.478896849E+01  4.481036952E+01  1.292175853E+00  0.00000E+00  9.000E+00
      11     1     3     3     0     0  1.856586447E-01  4.554188107E-01  7.467526900E+00  7.483704543E+00  5.110000000E-04  0.00000E+00  9.000E+00
     -11     1     3     3     0     0 -5.986653491E-01 -1.775252511E-01  3.732144159E+01  3.732666497E+01  5.110000000E-04  0.00000E+00  9.000E+00
      21     1     1     2   501   502  4.130067045E-01 -2.778935596E-01  1.164952633E+00  1.266852006E+00  9.541398641E-08  0.00000E+00  9.000E+00
#rwgt            1          21   149282.51608378516                3     4005474           0
<weights>
0.11145E+08
0.12059E+08
0.10190E+08
0.12060E+08
0.97592E+07
0.10873E+08
0.11296E+08
0.10936E+08
0.11437E+08
0.10799E+08
0.10753E+08
0.10967E+08
0.10950E+08
0.10804E+08
0.10768E+08
0.11193E+08
0.11296E+08
0.11524E+08
0.11552E+08
0.11530E+08
0.11502E+08
0.11573E+08
0.11566E+08
0.11535E+08
0.11279E+08
0.11331E+08
0.11389E+08
0.11516E+08
0.11383E+08
0.11563E+08
0.11571E+08
0.11175E+08
0.11246E+08
0.11134E+08
0.11191E+08
0.11043E+08
0.11290E+08
0.11216E+08
0.11006E+08
0.11181E+08
0.11113E+08
0.11216E+08
0.11071E+08
0.11557E+08
0.10770E+08
</weights>
</event>
<event>
      6  10001 -1.11453E+07  8.94427E-01 -1.00000E+00  5.30380E-01
       2    -1     0     0   501     0  0.000000000E+00  0.000000000E+00  7.363811736E+01  7.363811736E+01  0.000000000E+00  0.00000E+00  9.000E+00
      21    -1     0     0   502   501  0.000000000E+00  0.000000000E+00 -2.461591224E-02  2.461591224E-02  0.000000000E+00  0.00000E+00  9.000E+00
      23     2     1     2     0     0 -2.499836943E-01  2.929078645E-01  7.174382387E+01  7.175381182E+01  1.133560940E+00  0.00000E+00  9.000E+00
      11     1     3     3     0     0 -2.630540894E-01  7.173568398E-01  4.188590934E+01  4.189287768E+01  5.110000000E-04  0.00000E+00  9.000E+00
     -11     1     3     3     0     0  1.307039512E-02 -4.244489753E-01  2.985791453E+01  2.986093414E+01  5.110000000E-04  0.00000E+00  9.000E+00
       2     1     1     2   502     0  2.499836943E-01 -2.929078645E-01  1.869677578E+00  1.908921452E+00  0.000000000E+00  0.00000E+00  9.000E+00
#rwgt            1          24  -35097010.387240291                3     4008026           0
<weights>
-.11145E+08
-.12416E+08
-.96703E+07
-.15103E+08
-.77488E+07
-.91624E+07
-.13909E+08
-.11168E+08
-.11125E+08
-.10818E+08
-.10804E+08
-.10960E+08
-.11001E+08
-.10834E+08
-.10815E+08
-.11226E+08
-.11216E+08
-.11470E+08
-.11516E+08
-.11503E+08
-.11446E+08
-.11512E+08
-.11530E+08
-.11427E+08
-.11328E+08
-.11288E+08
-.11380E+08
-.11444E+08
-.11380E+08
-.11491E+08
-.11524E+08
-.11186E+08
-.11217E+08
-.11137E+08
-.11179E+08
-.11205E+08
-.11105E+08
-.11143E+08
-.11073E+08
-.11169E+08
-.11125E+08
-.11187E+08
-.11102E+08
-.11514E+08
-.10806E+08
</weights>
</event>
<event>
      7  10001  1.11453E+07  1.30088E+00 -1.00000E+00  4.70395E-01
       1    -1     0     0   501     0  0.000000000E+00  0.000000000E+00  1.956782445E-01  1.956782445E-01  0.000000000E+00  0.00000E+00  9.000E+00
      21    -1     0     0   502   511  0.000000000E+00  0.000000000E+00 -2.503844023E+02  2.503844023E+02  0.000000000E+00  0.00000E+00  9.000E+00
      23     2     1     2     0     0 -1.143261797E-01  4.004012308E-01 -3.705511309E+00  4.020620361E+00  1.503722849E+00  0.00000E+00  9.000E+00
      11     1     3     3     0     0 -6.957717749E-01 -5.271650150E-02 -1.020404225E+00  1.236164405E+00  5.110000000E-04  0.00000E+00  9.000E+00
     -11     1     3     3     0     0  5.814455952E-01  4.531177322E-01 -2.685107083E+00  2.784455956E+00  5.110000000E-04  0.00000E+00  9.000E+00
       1     1     1     2   502     0  7.299716211E-01  7.455739855E-01 -7.450751765E+00  7.523459378E+00  0.000000000E+00  0.00000E+00  9.000E+00
      21     1     1     2   501   511 -6.156454414E-01 -1.145975216E+00 -2.390324610E+02  2.390360008E+02  0.000000000E+00  0.00000E+00  9.000E+00
#rwgt            1          22   236760.97839855752                3     4012956           0
<weights>
0.11145E+08
0.14172E+08
0.82044E+07
0.11551E+08
0.10059E+08
0.12902E+08
0.81812E+07
0.11257E+08
0.11025E+08
0.10514E+08
0.10490E+08
0.10808E+08
0.10857E+08
0.10520E+08
0.10501E+08
0.11284E+08
0.11347E+08
0.11798E+08
0.11856E+08
0.11856E+08
0.11745E+08
0.11860E+08
0.11936E+08
0.11509E+08
0.11630E+08
0.11587E+08
0.11025E+08
0.11786E+08
0.11549E+08
0.11824E+08
0.11886E+08
0.11232E+08
0.11277E+08
0.11121E+08
0.11216E+08
0.11327E+08
0.10994E+08
0.11134E+08
0.10908E+08
0.11238E+08
0.11066E+08
0.11208E+08
0.11080E+08
0.11866E+08
0.10490E+08
</weights>
</event>
<event>
      6  10001 -1.11453E+07  8.94427E-01 -1.00000E+00  3.21234E-01
       4    -1     0     0   501     0  0.000000000E+00  0.000000000E+00  1.923803412E+02  1.923803412E+02  0.000000000E+00  0.00000E+00  9.000E+00
      -4    -1     0     0     0   502  0.000000000E+00  0.000000000E+00 -1.436211459E-02  1.436211459E-02  0.000000000E+00  0.00000E+00  9.000E+00
      23     2     1     2     0     0 -6.034976621E-01 -1.037020932E+00  7.634720513E+01  7.636972527E+01  1.414066365E+00  0.00000E+00  9.000E+00
      11     1     3     3     0     0 -3.528855244E-01  7.442966087E-02  4.558700924E+01  4.558843581E+01  5.110000000E-04  0.00000E+00  9.000E+00
     -11     1     3     3     0     0 -2.506121377E-01 -1.111450593E+00  3.076019590E+01  3.078128946E+01  5.110000000E-04  0.00000E+00  9.000E+00
      21     1     1     2   501   502  6.034976621E-01  1.037020932E+00  1.160187740E+02  1.160249781E+02  1.907348633E-06  0.00000E+00  9.000E+00
#rwgt            1          27  -31302.321623007731                3     4016717           0
<weights>
-.11145E+08
-.13523E+08
-.85842E+07
-.16446E+08
-.68784E+07
-.91645E+07
-.13909E+08
-.11173E+08
-.11118E+08
-.10817E+08
-.10804E+08
-.10959E+08
-.11002E+08
-.10833E+08
-.10815E+08
-.11228E+08
-.11215E+08
-.11472E+08
-.11512E+08
-.11500E+08
-.11448E+08
-.11513E+08
-.11531E+08
-.11416E+08
-.11333E+08
-.11292E+08
-.11336E+08
-.11445E+08
-.11379E+08
-.11491E+08
-.11525E+08
-.11187E+08
-.11217E+08
-.11137E+08
-.11180E+08
-.11209E+08
-.11101E+08
-.11143E+08
-.11072E+08
-.11169E+08
-.11125E+08
-.11186E+08
-.11103E+08
-.11515E+08
-.10805E+08
</weights>
</event>
<event>
      7  10001  1.11453E+07  1.68710E+00 -1.00000E+00  3.88770E-01
      21    -1     0     0   511   501  0.000000000E+00  0.000000000E+00  1.573281674E+02  1.573281674E+02  0.000000000E+00  0.00000E+00  9.000E+00
       3    -1     0     0   501     0  0.000000000E+00  0.000000000E+00 -6.867297287E-01  6.867297287E-01  0.000000000E+00  0.00000E+00  9.000E+00
      23     2     1     2     0     0 -4.297275906E-01 -5.792353040E-01  1.154462879E+00  1.722287067E+00  1.055134524E+00  0.00000E+00  9.000E+00
      11     1     3     3     0     0 -5.920502378E-01  6.682767138E-02  6.820288522E-01  9.056230110E-01  5.110000000E-04  0.00000E+00  9.000E+00
     -11     1     3     3     0     0  1.623226472E-01 -6.460629753E-01  4.724340266E-01  8.166640561E-01  5.110000000E-04  0.00000E+00  9.000E+00
       3     1     1     2   502     0 -1.255986311E+00  6.475121037E-01  8.553582395E-01  1.651790318E+00  0.000000000E+00  0.00000E+00  9.000E+00
      21     1     1     2   511   502  1.685713902E+00 -6.827679970E-02  1.546316166E+02  1.546408197E+02  3.303624740E-06  0.00000E+00  9.000E+00
#rwgt            1          18   26861.142038564245                3     4017533           0
<weights>
0.11145E+08
0.22942E+08
0.28806E+07
-.52482E+07
0.20700E+08
0.29984E+08
-.18041E+08
0.11088E+08
0.11193E+08
0.10409E+08
0.10276E+08
0.11116E+08
0.10337E+08
0.10360E+08
0.10295E+08
0.11131E+08
0.11371E+08
0.10730E+08
0.15209E+08
0.14462E+08
0.10846E+08
0.12068E+08
0.12311E+08
0.17738E+08
0.91169E+07
0.81568E+07
0.32918E+08
0.10939E+08
0.13624E+08
0.12112E+08
0.12315E+08
0.11549E+08
0.11063E+08
0.11151E+08
0.11236E+08
0.11153E+08
0.11172E+08
0.11929E+08
0.10258E+08
0.11396E+08
0.10918E+08
0.11367E+08
0.10910E+08
0.12090E+08
0.10306E+08
</weights>
</event>
<event>
      6  10001 -1.11453E+07  8.94427E-01 -1.00000E+00  6.64176E-01
       2    -1     0     0   501     0  0.000000000E+00  0.000000000E+00  8.029560152E+01  8.029560152E+01  0.000000000E+00  0.00000E+00  9.000E+00
      21    -1     0     0   502   501  0.000000000E+00  0.000000000E+00 -2.356495405E-02  2.356495405E-02  0.000000000E+00  0.00000E+00  9.000E+00
      23     2     1     2     0     0  1.950713408E-02  3.902500690E-01  5.339880770E+01  5.344309709E+01  2.139926999E+00  0.00000E+00  9.000E+00
      11     1     3     3     0     0  8.006592229E-02  1.263293820E+00  2.676674039E+01  2.679665489E+01  5.110000000E-04  0.00000E+00  9.000E+00
     -11     1     3     3     0     0 -6.055878821E-02 -8.730437512E-01  2.663206731E+01  2.664644220E+01  5.110000000E-04  0.00000E+00  9.000E+00
       2     1     1     2   502     0 -1.950713408E-02 -3.902500690E-01  2.687322887E+01  2.687606938E+01  0.000000000E+00  0.00000E+00  9.000E+00
#rwgt            1          24  -3430256.9619311700                3     4020539           0
<weights>
-.11145E+08
-.12520E+08
-.95923E+07
-.15225E+08
-.76862E+07
-.91650E+07
-.13909E+08
-.11171E+08
-.11120E+08
-.10823E+08
-.10812E+08
-.10962E+08
-.11006E+08
-.10840E+08
-.10823E+08
-.11226E+08
-.11211E+08
-.11463E+08
-.11505E+08
-.11493E+08
-.11440E+08
-.11503E+08
-.11522E+08
-.11413E+08
-.11329E+08
-.11287E+08
-.11353E+08
-.11436E+08
-.11373E+08
-.11481E+08
-.11515E+08
-.11184E+08
-.11217E+08
-.11138E+08
-.11178E+08
-.11208E+08
-.11102E+08
-.11134E+08
-.11082E+08
-.11167E+08
-.11127E+08
-.11185E+08
-.11103E+08
-.11507E+08
-.10813E+08
</weights>
</event>
<event>
      6  10001  1.11453E+07  8.94427E-01 -1.00000E+00  6.04269E-01
      -1    -1     0     0     0   502  0.000000000E+00  0.000000000E+00  2.363522011E+01  2.363522011E+01  0.000000000E+00  0.00000E+00  9.000E+00
       1    -1     0     0   501     0  0.000000000E+00  0.000000000E+00 -1.314035016E-01  1.314035016E-01  0.000000000E+00  0.00000E+00  9.000E+00
      23     2     1     2     0     0 -2.125294356E-01 -4.477219179E-01  1.813803375E+01  1.837800140E+01  2.918397402E+00  0.00000E+00  9.000E+00
      11     1     3     3     0     0  6.293369174E-01 -1.029491738E+00  3.460359083E+00  3.664696909E+00  5.110000000E-04  0.00000E+00  9.000E+00
     -11     1     3     3     0     0 -8.418663530E-01  5.817698205E-01  1.467767466E+01  1.471330449E+01  5.110000000E-04  0.00000E+00  9.000E+00
      21     1     1     2   501   502  2.125294356E-01  4.477219179E-01  5.365782864E+00  5.388622219E+00  8.429369702E-08  0.00000E+00  9.000E+00
#rwgt            1          10   102220.85091594570                3     4023790           0
<weights>
0.11083E+08
0.16056E+08
0.79480E+07
0.66818E+07
0.13336E+08
0.17481E+08
0.23359E+07
0.10278E+08
0.12116E+08
0.10683E+08
0.10538E+08
0.10898E+08
0.10773E+08
0.10655E+08
0.10567E+08
0.11166E+08
0.11337E+08
0.11722E+08
0.11492E+08
0.11433E+08
0.11718E+08
0.11679E+08
0.11628E+08
0.11732E+08
0.11138E+08
0.11442E+08
0.11343E+08
0.11600E+08
0.11424E+08
0.11701E+08
0.11660E+08
0.11103E+08
0.11247E+08
0.11188E+08
0.11052E+08
0.10537E+08
0.11726E+08
0.11384E+08
0.10726E+08
0.11141E+08
0.11026E+08
0.11242E+08
0.10915E+08
0.11621E+08
0.10601E+08
</weights>
</event>
<event>
      6  10001 -1.11453E+07  8.94427E-01 -1.00000E+00  6.37465E-01
      -1    -1     0     0     0   502  0.000000000E+00  0.000000000E+00  7.950402244E+01  7.950402244E+01  0.000000000E+00  0.00000E+00  9.000E+00
      21    -1     0     0   502   501  0.000000000E+00  0.000000000E+00 -1.079359551E-02  1.079359551E-02  0.000000000E+00  0.00000E+00  9.000E+00
      23     2     1     2     0     0  1.630577941E-01 -4.673800399E-01  3.669116159E+01  3.670988649E+01  1.062730212E+00  0.00000E+00  9.000E+00
      11     1     3     3     0     0 -2.425571341E-02  1.839284299E-01  2.394656719E+01  2.394728582E+01  5.110000000E-04  0.00000E+00  9.000E+00
     -11     1     3     3     0     0  1.873135075E-01 -6.513084698E-01  1.274459440E+01  1.276260066E+01  5.110000000E-04  0.00000E+00  9.000E+00
      -1     1     1     2     0   501 -1.630577941E-01  4.673800399E-01  4.280206725E+01  4.280492954E+01  0.000000000E+00  0.00000E+00  9.000E+00
#rwgt            1           9  -680604.79749175464                3     4027470           0
<weights>
-.11145E+08
-.12431E+08
-.96736E+07
-.15118E+08
-.77513E+07
-.91646E+07
-.13909E+08
-.11170E+08
-.11122E+08
-.10824E+08
-.10813E+08
-.10962E+08
-.11006E+08
-.10841E+08
-.10824E+08
-.11226E+08
-.11211E+08
-.11462E+08
-.11505E+08
-.11492E+08
-.11438E+08
-.11501E+08
-.11520E+08
-.11414E+08
-.11328E+08
-.11286E+08
-.11363E+08
-.11435E+08
-.11372E+08
-.11479E+08
-.11514E+08
-.11183E+08
-.11217E+08
-.11138E+08
-.11178E+08
-.11208E+08
-.11102E+08
-.11132E+08
-.11084E+08
-.11166E+08
-.11128E+08
-.11185E+08
-.11104E+08
-.11505E+08
-.10814E+08
</weights>
</event>
<event>
      7  10001  1.11453E+07  1.57675E+00 -1.00000E+00  4.04638E-01
       4    -1     0     0   511     0  0.000000000E+00  0.000000000E+00  1.357384192E-01  1.357384192E-01  0.000000000E+00  0.00000E+00  9.000E+00
      21    -1     0     0   502   501  0.000000000E+00  0.000000000E+00 -5.243509561E+01  5.243509561E+01  0.000000000E+00  0.00000E+00  9.000E+00
      23     2     1     2     0     0  9.157829651E-02 -2.794134274E-01 -1.358665336E+01  1.365257406E+01  1.307352429E+00  0.00000E+00  9.000E+00
      11     1     3     3     0     0 -4.900033199E-01  2.369171586E-01 -6.724668186E+00  6.746658096E+00  5.110000000E-04  0.00000E+00  9.000E+00
     -11     1     3     3     0     0  5.815816164E-01 -5.163305860E-01 -6.861985177E+00  6.905915962E+00  5.110000000E-04  0.00000E+00  9.000E+00
       4     1     1     2   502     0 -1.655613828E+00  4.792175637E-01 -3.090020087E+01  3.094823292E+01  0.000000000E+00  0.00000E+00  9.000E+00
      21     1     1     2   511   501  1.564035531E+00 -1.998041363E-01 -7.812502958E+00  7.970027058E+00  1.884864366E-07  0.00000E+00  9.000E+00
#rwgt            1          28   859510.82918609865                3     4028857           0
<weights>
0.11145E+08
0.13047E+08
0.91300E+07
0.12370E+08
0.95268E+07
0.11501E+08
0.10333E+08
0.11315E+08
0.10976E+08
0.10620E+08
0.10746E+08
0.10856E+08
0.10978E+08
0.10697E+08
0.10734E+08
0.11245E+08
0.11205E+08
0.11534E+08
0.11614E+08
0.11607E+08
0.11506E+08
0.11553E+08
0.11682E+08
0.11250E+08
0.11609E+08
0.11500E+08
0.10980E+08
0.11496E+08
0.11329E+08
0.11463E+08
0.11583E+08
0.11103E+08
0.11320E+08
0.11179E+08
0.11126E+08
0.11395E+08
0.10927E+08
0.10675E+08
0.11495E+08
0.11135E+08
0.11155E+08
0.11173E+08
0.11117E+08
0.11631E+08
0.10686E+08
</weights>
</event>
<event>
      7  10001  1.11453E+07  9.14909E-01 -1.00000E+00  5.98185E-01
      21    -1     0     0   502   501  0.000000000E+00  0.000000000E+00  8.608853776E+00  8.608853776E+00  0.000000000E+00  0.00000E+00  9.000E+00
      -2    -1     0     0     0   502  0.000000000E+00  0.000000000E+00 -2.587006614E+00  2.587006614E+00  0.000000000E+00  0.00000E+00  9.000E+00
      23     2     1     2     0     0  3.223762858E-01  1.393514720E-01 -2.273915193E+00  2.875038412E+00  1.723893924E+00  0.00000E+00  9.000E+00
      11     1     3     3     0     0  4.717453012E-01 -1.790146869E-01 -2.436079205E+00  2.487784565E+00  5.110000000E-04  0.00000E+00  9.000E+00
     -11     1     3     3     0     0 -1.493690155E-01  3.183661589E-01  1.621640119E-01  3.872538467E-01  5.110000000E-04  0.00000E+00  9.000E+00
      -2     1     1     2     0   511 -2.457551531E-01 -2.062783130E-01  2.112886705E+00  2.137109395E+00  0.000000000E+00  0.00000E+00  9.000E+00
      21     1     1     2   511   501 -7.662113269E-02  6.692684107E-02  6.182875651E+00  6.183712583E+00  1.460009660E-07  0.00000E+00  9.000E+00
#rwgt            2         160   6327544.4255763814                3     4068226           0
<weights>
0.11145E+08
0.11028E+08
0.11059E+08
0.13403E+08
0.88610E+07
0.91702E+07
0.13910E+08
0.11113E+08
0.11177E+08
0.10853E+08
0.10844E+08
0.10982E+08
0.11005E+08
0.10871E+08
0.10855E+08
0.11180E+08
0.11258E+08
0.11450E+08
0.11427E+08
0.11416E+08
0.11432E+08
0.11464E+08
0.11480E+08
0.11345E+08
0.11320E+08
0.11359E+08
0.11073E+08
0.11435E+08
0.11281E+08
0.11443E+08
0.11466E+08
0.11147E+08
0.11242E+08
0.11153E+08
0.11161E+08
0.11091E+08
0.11222E+08
0.11092E+08
0.11116E+08
0.11155E+08
0.11135E+08
0.11204E+08
0.11083E+08
0.11468E+08
0.10847E+08
</weights>
</event>
<event>
      7  10001  1.11453E+07  1.89385E+00 -1.00000E+00  3.64396E-01
       1    -1     0     0   501     0  0.000000000E+00  0.000000000E+00  2.729187115E+02  2.729187115E+02  0.000000000E+00  0.00000E+00  9.000E+00
      21    -1     0     0   502   512  0.000000000E+00  0.000000000E+00 -9.674773350E+01  9.674773350E+01  0.000000000E+00  0.00000E+00  9.000E+00
      23     2     1     2     0     0  1.938626593E-01  1.700948810E-01  2.648876639E+02  2.648914580E+02  1.394109424E+00  0.00000E+00  9.000E+00
      11     1     3     3     0     0 -3.560951562E-01  5.690420561E-01  9.146597684E+01  9.146844008E+01  5.110000000E-04  0.00000E+00  9.000E+00
     -11     1     3     3     0     0  5.499578156E-01 -3.989471751E-01  1.734216870E+02  1.734230179E+02  5.110000000E-04  0.00000E+00  9.000E+00
       1     1     1     2   502     0  1.565098567E+00  5.318346134E-01  7.934698897E+00  8.105049547E+00  0.000000000E+00  0.00000E+00  9.000E+00
      21     1     1     2   501   512 -1.758961227E+00 -7.019294944E-01 -9.665138471E+01  9.666993750E+01  2.336015456E-06  0.00000E+00  9.000E+00
#rwgt            1          22   5741991.5475824652                3     4071004           0
<weights>
0.11145E+08
0.12586E+08
0.93225E+07
0.13257E+08
0.88978E+07
0.10597E+08
0.11719E+08
0.11147E+08
0.11146E+08
0.10766E+08
0.10725E+08
0.10939E+08
0.10957E+08
0.10772E+08
0.10740E+08
0.11235E+08
0.11256E+08
0.11546E+08
0.11607E+08
0.11590E+08
0.11517E+08
0.11606E+08
0.11611E+08
0.11534E+08
0.11335E+08
0.11309E+08
0.11502E+08
0.11526E+08
0.11449E+08
0.11593E+08
0.11618E+08
0.11213E+08
0.11219E+08
0.11130E+08
0.11196E+08
0.11186E+08
0.11128E+08
0.11242E+08
0.10971E+08
0.11194E+08
0.11103E+08
0.11200E+08
0.11088E+08
0.11594E+08
0.10737E+08
</weights>
</event>
<event>
      7  10001  1.11453E+07  1.07885E+00 -1.00000E+00  5.34060E-01
      21    -1     0     0   511   502  0.000000000E+00  0.000000000E+00  2.921145808E+02  2.921145808E+02  0.000000000E+00  0.00000E+00  9.000E+00
       2    -1     0     0   501     0  0.000000000E+00  0.000000000E+00 -3.639558637E-02  3.639558637E-02  0.000000000E+00  0.00000E+00  9.000E+00
      23     2     1     2     0     0 -1.507428905E+00  1.587192683E-01  3.151909471E+01  3.157726762E+01  1.171736087E+00  0.00000E+00  9.000E+00
      11     1     3     3     0     0 -8.481318552E-01  1.098607982E-01  7.422627271E+00  7.471732925E+00  5.110000000E-04  0.00000E+00  9.000E+00
     -11     1     3     3     0     0 -6.592970502E-01  4.885847017E-02  2.409646744E+01  2.410553470E+01  5.110000000E-04  0.00000E+00  9.000E+00
      21     1     1     2   501   502  1.368514495E+00  9.111473637E-01  1.357482318E+02  1.357581874E+02  0.000000000E+00  0.00000E+00  9.000E+00
       2     1     1     2   511     0  1.389144099E-01 -1.069866632E+00  1.248108587E+02  1.248155213E+02  0.000000000E+00  0.00000E+00  9.000E+00
#rwgt            1           8   130370.97919722773                3     4078764           0
<weights>
0.11145E+08
0.12050E+08
0.10206E+08
0.12445E+08
0.96156E+07
0.10656E+08
0.11628E+08
0.10954E+08
0.11424E+08
0.10799E+08
0.10755E+08
0.10967E+08
0.10953E+08
0.10805E+08
0.10770E+08
0.11197E+08
0.11290E+08
0.11519E+08
0.11558E+08
0.11536E+08
0.11497E+08
0.11570E+08
0.11566E+08
0.11539E+08
0.11281E+08
0.11321E+08
0.11442E+08
0.11511E+08
0.11388E+08
0.11560E+08
0.11570E+08
0.11179E+08
0.11242E+08
0.11133E+08
0.11193E+08
0.11061E+08
0.11271E+08
0.11214E+08
0.11008E+08
0.11181E+08
0.11113E+08
0.11213E+08
0.11074E+08
0.11556E+08
0.10771E+08
</weights>
</event>
<event>
      7  10001  1.11453E+07  1.41513E+00 -1.00000E+00  4.44466E-01
      21    -1     0     0   502   501  0.000000000E+00  0.000000000E+00  4.144084754E+02  4.144084754E+02  0.000000000E+00  0.00000E+00  9.000E+00
       4    -1     0     0   501     0  0.000000000E+00  0.000000000E+00 -2.858028130E-02  2.858028130E-02  0.000000000E+00  0.00000E+00  9.000E+00
      23     2     1     2     0     0  1.832015241E-01 -2.272801479E-01  1.724293970E+01  1.729883486E+01  1.358491421E+00  0.00000E+00  9.000E+00
      11     1     3     3     0     0  8.144407238E-02 -8.012044799E-01  1.036881257E+01  1.040004020E+01  5.110000000E-04  0.00000E+00  9.000E+00
     -11     1     3     3     0     0  1.017574517E-01  5.739243320E-01  6.874127128E+00  6.898794659E+00  5.110000000E-04  0.00000E+00  9.000E+00
       4     1     1     2   511     0  3.677340691E-01  1.981093007E-01  1.227356600E+02  1.227363708E+02  0.000000000E+00  0.00000E+00  9.000E+00
      21     1     1     2   502   511 -5.509355932E-01  2.917084722E-02  2.744012954E+02  2.744018500E+02  3.814697266E-06  0.00000E+00  9.000E+00
#rwgt            1          19   2141920.8448293107                3     4080494           0
<weights>
0.11145E+08
0.11392E+08
0.10742E+08
0.12628E+08
0.95359E+07
0.10055E+08
0.12551E+08
0.11151E+08
0.11143E+08
0.10779E+08
0.10744E+08
0.10945E+08
0.10968E+08
0.10787E+08
0.10758E+08
0.11232E+08
0.11248E+08
0.11528E+08
0.11587E+08
0.11570E+08
0.11500E+08
0.11583E+08
0.11592E+08
0.11512E+08
0.11333E+08
0.11305E+08
0.11486E+08
0.11507E+08
0.11432E+08
0.11569E+08
0.11595E+08
0.11207E+08
0.11219E+08
0.11132E+08
0.11192E+08
0.11190E+08
0.11123E+08
0.11221E+08
0.10995E+08
0.11188E+08
0.11108E+08
0.11197E+08
0.11092E+08
0.11575E+08
0.10753E+08
</weights>
</event>
<event>
      6  10001  1.11453E+07  8.94427E-01 -1.00000E+00  6.02896E-01
      21    -1     0     0   502   501  0.000000000E+00  0.000000000E+00  9.880977503E+01  9.880977503E+01  0.000000000E+00  0.00000E+00  9.000E+00
       4    -1     0     0   501     0  0.000000000E+00  0.000000000E+00 -2.632452174E-02  2.632452174E-02  0.000000000E+00  0.00000E+00  9.000E+00
      23     2     1     2     0     0  1.235730189E+00 -5.755715428E-01  4.590870970E+01  4.594378889E+01  1.167818247E+00  0.00000E+00  9.000E+00
      11     1     3     3     0     0  7.732618724E-01 -5.910443006E-01  1.496321216E+01  1.499483196E+01  5.110000000E-04  0.00000E+00  9.000E+00
     -11     1     3     3     0     0  4.624683170E-01  1.547275782E-02  3.094549755E+01  3.094895693E+01  5.110000000E-04  0.00000E+00  9.000E+00
       4     1     1     2   502     0 -1.235730189E+00  5.755715428E-01  5.287474081E+01  5.289231066E+01  0.000000000E+00  0.00000E+00  9.000E+00
#rwgt            1          19   285447.51329074567                3     4093864           0
<weights>
0.11145E+08
0.12511E+08
0.97069E+07
0.12597E+08
0.94836E+07
0.10936E+08
0.11199E+08
0.11144E+08
0.11151E+08
0.10768E+08
0.10727E+08
0.10941E+08
0.10958E+08
0.10774E+08
0.10742E+08
0.11234E+08
0.11257E+08
0.11543E+08
0.11608E+08
0.11590E+08
0.11515E+08
0.11603E+08
0.11609E+08
0.11539E+08
0.11332E+08
0.11308E+08
0.11531E+08
0.11524E+08
0.11447E+08
0.11591E+08
0.11615E+08
0.11212E+08
0.11219E+08
0.11130E+08
0.11195E+08
0.11184E+08
0.11130E+08
0.11243E+08
0.10973E+08
0.11194E+08
0.11104E+08
0.11199E+08
0.11089E+08
0.11591E+08
0.10739E+08
</weights>
</event>
<event>
      7  10001 -1.11453E+07  1.38923E+00 -1.00000E+00  4.50102E-01
      21    -1     0     0   511   501  0.000000000E+00  0.000000000E+00  2.349737516E+01  2.349737516E+01  0.000000000E+00  0.00000E+00  9.000E+00
      -2    -1     0     0     0   502  0.000000000E+00  0.000000000E+00 -1.371019394E+01  1.371019394E+01  0.000000000E+00  0.00000E+00  9.000E+00
      23     2     1     2     0     0 -6.566828908E-01  2.510565125E-02 -1.063471085E+01  1.075363780E+01  1.453199306E+00  0.00000E+00  9.000E+00
      11     1     3     3     0     0 -6.915465283E-01 -5.366789655E-01 -8.535712403E+00  8.580480604E+00  5.110000000E-04  0.00000E+00  9.000E+00
     -11     1     3     3     0     0  3.486363752E-02  5.617846168E-01 -2.098998450E+00  2.173157193E+00  5.110000000E-04  0.00000E+00  9.000E+00
      -2     1     1     2     0   501 -7.318993442E-01 -6.743928919E-02 -2.950306190E+00  3.040482087E+00  0.000000000E+00  0.00000E+00  9.000E+00
      21     1     1     2   511   502  1.388582235E+00  4.233363794E-02  2.337219826E+01  2.341344921E+01  4.768371582E-07  0.00000E+00  9.000E+00
#rwgt            1          14  -467409.22359691653                3     4101746           0
<weights>
-.11145E+08
-.43839E+07
-.16609E+08
-.16940E+08
-.68070E+07
-.18506E+07
-.25146E+08
-.11347E+08
-.10952E+08
-.11141E+08
-.11268E+08
-.11040E+08
-.11349E+08
-.11223E+08
-.11264E+08
-.11286E+08
-.10822E+08
-.10988E+08
-.11026E+08
-.11044E+08
-.10985E+08
-.10980E+08
-.11012E+08
-.10902E+08
-.11234E+08
-.10968E+08
-.11191E+08
-.10917E+08
-.11142E+08
-.10917E+08
-.11007E+08
-.11144E+08
-.11102E+08
-.11114E+08
-.11151E+08
-.11682E+08
-.10601E+08
-.10769E+08
-.11609E+08
-.11031E+08
-.11257E+08
-.11020E+08
-.11279E+08
-.11049E+08
-.11213E+08
</weights>
</event>
<event>
      6  10001 -1.11453E+07  8.94427E-01 -1.00000E+00  1.94193E-01
       3    -1     0     0   501     0  0.000000000E+00  0.000000000E+00  1.634813323E+02  1.634813323E+02  0.000000000E+00  0.00000E+00  9.000E+00
      21    -1     0     0   502   501  0.000000000E+00  0.000000000E+00 -6.126330562E-03  6.126330562E-03  0.000000000E+00  0.00000E+00  9.000E+00
      23     2     1     2     0     0  2.945151325E-01  4.857717087E-02  1.552209158E+02  1.552277731E+02  1.428194695E+00  0.00000E+00  9.000E+00
      11     1     3     3     0     0  2.344962743E-01  6.069472320E-01  1.246585697E+02  1.246602679E+02  5.110000000E-04  0.00000E+00  9.000E+00
     -11     1     3     3     0     0  6.001885821E-02 -5.583700611E-01  3.056234606E+01  3.056750524E+01  5.110000000E-04  0.00000E+00  9.000E+00
       3     1     1     2   502     0 -2.945151325E-01 -4.857717087E-02  8.254290134E+00  8.259685497E+00  0.000000000E+00  0.00000E+00  9.000E+00
#rwgt            1          26  -837658.34173577547                3     4108783           0
<weights>
-.11145E+08
-.11501E+08
-.10962E+08
-.13983E+08
-.87832E+07
-.91674E+07
-.13909E+08
-.11159E+08
-.11131E+08
-.11018E+08
-.11023E+08
-.11040E+08
-.11126E+08
-.11047E+08
-.11035E+08
-.11201E+08
-.11112E+08
-.11261E+08
-.11234E+08
-.11226E+08
-.11253E+08
-.11266E+08
-.11253E+08
-.11234E+08
-.11203E+08
-.11178E+08
-.11224E+08
-.11225E+08
-.11219E+08
-.11248E+08
-.11269E+08
-.11152E+08
-.11175E+08
-.11135E+08
-.11164E+08
-.11191E+08
-.11107E+08
-.11082E+08
-.11196E+08
-.11113E+08
-.11175E+08
-.11157E+08
-.11133E+08
-.11273E+08
-.11022E+08
</weights>
</event>
<event>
      7  10001  1.11453E+07  2.00955E+00 -1.00000E+00  3.53094E-01
       1    -1     0     0   501     0  0.000000000E+00  0.000000000E+00  6.458901566E-01  6.458901566E-01  0.000000000E+00  0.00000E+00  9.000E+00
      21    -1     0     0   511   501  0.000000000E+00  0.000000000E+00 -2.313447133E+02  2.313447133E+02  0.000000000E+00  0.00000E+00  9.000E+00
      23     2     1     2     0     0  3.511369630E-01 -6.189942537E-01 -5.671549735E-01  1.438464618E+00  1.114030808E+00  0.00000E+00  9.000E+00
      11     1     3     3     0     0  3.193184245E-01 -6.894447811E-01  1.004374764E-01  7.664113192E-01  5.110000000E-04  0.00000E+00  9.000E+00
     -11     1     3     3     0     0  3.181853851E-02  7.045052739E-02 -6.675924499E-01  6.720532988E-01  5.110000000E-04  0.00000E+00  9.000E+00
       1     1     1     2   502     0 -2.291116353E+00  9.479541482E-02 -6.184041332E+00  6.595496002E+00  0.000000000E+00  0.00000E+00  9.000E+00
      21     1     1     2   511   502  1.939979390E+00  5.241988389E-01 -2.239476268E+02  2.239566428E+02  2.697398305E-06  0.00000E+00  9.000E+00
#rwgt            1          22   244680.65124207150                3     4110685           0
<weights>
0.11145E+08
0.13186E+08
0.91294E+07
0.12200E+08
0.97151E+07
0.11711E+08
0.10009E+08
0.11228E+08
0.11057E+08
0.10676E+08
0.10663E+08
0.10881E+08
0.10946E+08
0.10694E+08
0.10674E+08
0.11261E+08
0.11262E+08
0.11626E+08
0.11643E+08
0.11641E+08
0.11587E+08
0.11668E+08
0.11707E+08
0.11419E+08
0.11484E+08
0.11442E+08
0.11079E+08
0.11600E+08
0.11445E+08
0.11637E+08
0.11686E+08
0.11206E+08
0.11244E+08
0.11126E+08
0.11199E+08
0.11282E+08
0.11032E+08
0.11120E+08
0.11010E+08
0.11195E+08
0.11103E+08
0.11192E+08
0.11096E+08
0.11673E+08
0.10662E+08
</weights>
</event>
<event>
      7  10001  1.11453E+07  5.44430E+00 -1.00000E+00  2.30901E-01
       1    -1     0     0   501     0  0.000000000E+00  0.000000000E+00  7.673638097E+01  7.673638097E+01  0.000000000E+00  0.00000E+00  9.000E+00
      -4    -1     0     0     0   501  0.000000000E+00  0.000000000E+00 -6.475235575E+00  6.475235575E+00  0.000000000E+00  0.00000E+00  9.000E+00
      23     2     1     2     0     0  2.146815502E+00  3.496880270E+00  1.563398054E+00  4.939740051E+00  2.262704107E+00  0.00000E+00  9.000E+00
      11     1     3     3     0     0  2.058431696E+00  1.852211918E+00  1.759900133E+00  3.281017948E+00  5.110000000E-04  0.00000E+00  9.000E+00
     -11     1     3     3     0     0  8.838380545E-02  1.644668352E+00 -1.965020791E-01  1.658722103E+00  5.110000000E-04  0.00000E+00  9.000E+00
       1     1     1     2   502     0 -6.218687446E+00 -7.110779760E+00  7.151889186E+01  7.214005237E+01  0.000000000E+00  0.00000E+00  9.000E+00
      -4     1     1     2     0   502  4.071871944E+00  3.613899490E+00 -2.821144524E+00  6.131824124E+00  0.000000000E+00  0.00000E+00  9.000E+00
#rwgt            2         204   87266.972170687266                3     4114257           0
<weights>
0.11145E+08
0.10363E+08
0.11915E+08
0.12595E+08
0.95473E+07
0.91702E+07
0.13910E+08
0.11221E+08
0.11066E+08
0.10821E+08
0.10838E+08
0.10944E+08
0.11041E+08
0.10847E+08
0.10845E+08
0.11221E+08
0.11206E+08
0.11448E+08
0.11461E+08
0.11459E+08
0.11424E+08
0.11468E+08
0.11510E+08
0.11285E+08
0.11401E+08
0.11373E+08
0.11051E+08
0.11432E+08
0.11307E+08
0.11433E+08
0.11481E+08
0.11163E+08
0.11227E+08
0.11138E+08
0.11171E+08
0.11277E+08
0.11031E+08
0.11018E+08
0.11168E+08
0.11151E+08
0.11142E+08
0.11164E+08
0.11127E+08
0.11488E+08
0.10827E+08
</weights>
</event>
<event>
      6  10001 -1.11453E+07  8.94427E-01 -1.00000E+00  5.68658E-01
      -2    -1     0     0     0   502  0.000000000E+00  0.000000000E+00  1.263157154E+02  1.263157154E+02  0.000000000E+00  0.00000E+00  9.000E+00
      21    -1     0     0   502   501  0.000000000E+00  0.000000000E+00 -2.222933119E-02  2.222933119E-02  0.000000000E+00  0.00000E+00  9.000E+00
      23     2     1     2     0     0  2.862535325E-01 -1.423821104E-02  1.249211589E+02  1.249360084E+02  1.904755301E+00  0.00000E+00  9.000E+00
      11     1     3     3     0     0 -6.705713977E-01  3.808605084E-01  3.294800598E+01  3.295702989E+01  5.110000000E-04  0.00000E+00  9.000E+00
     -11     1     3     3     0     0  9.568249302E-01 -3.950987194E-01  9.197315297E+01  9.197897849E+01  5.110000000E-04  0.00000E+00  9.000E+00
      -2     1     1     2     0   501 -2.862535325E-01  1.423821104E-02  1.372327124E+00  1.401936356E+00  0.000000000E+00  0.00000E+00  9.000E+00
#rwgt            1           7  -6368032.7361751776                3     4116199           0
<weights>
-.11145E+08
-.12533E+08
-.95230E+07
-.15244E+08
-.76307E+07
-.91635E+07
-.13909E+08
-.11174E+08
-.11118E+08
-.10831E+08
-.10825E+08
-.10965E+08
-.11012E+08
-.10850E+08
-.10835E+08
-.11225E+08
-.11205E+08
-.11451E+08
-.11490E+08
-.11479E+08
-.11428E+08
-.11488E+08
-.11508E+08
-.11398E+08
-.11326E+08
-.11282E+08
-.11338E+08
-.11423E+08
-.11362E+08
-.11464E+08
-.11500E+08
-.11180E+08
-.11217E+08
-.11139E+08
-.11175E+08
-.11211E+08
-.11099E+08
-.11119E+08
-.11100E+08
-.11163E+08
-.11131E+08
-.11184E+08
-.11105E+08
-.11494E+08
-.10824E+08
</weights>
</event>
<event>
      6  10001 -1.11453E+07  8.94427E-01 -1.00000E+00  2.79322E-01
       2    -1     0     0   501     0  0.000000000E+00  0.000000000E+00  7.663495656E+02  7.663495656E+02  0.000000000E+00  0.00000E+00  9.000E+00
      21    -1     0     0   502   501  0.000000000E+00  0.000000000E+00 -1.047254116E-02  1.047254116E-02  0.000000000E+00  0.00000E+00  9.000E+00
      23     2     1     2     0     0  1.867590803E-01 -3.054814081E-01  7.618786245E+02  7.618852222E+02  3.150421490E+00  0.00000E+00  9.000E+00
      11     1     3     3     0     0 -3.670397237E-01 -6.431457779E-01  7.280686933E+02  7.280690699E+02  5.110000000E-04  0.00000E+00  9.000E+00
     -11     1     3     3     0     0  5.537988040E-01  3.376643698E-01  3.380993124E+01  3.381615237E+01  5.110000000E-04  0.00000E+00  9.000E+00
       2     1     1     2   502     0 -1.867590803E-01  3.054814081E-01  4.460468555E+00  4.474815926E+00  0.000000000E+00  0.00000E+00  9.000E+00
#rwgt            1          24  -155193515.50084576                3     4117086           0
<weights>
-.11146E+08
-.11304E+08
-.10781E+08
-.13772E+08
-.86396E+07
-.91494E+07
-.13909E+08
-.11173E+08
-.11121E+08
-.10826E+08
-.10817E+08
-.10964E+08
-.11008E+08
-.10844E+08
-.10827E+08
-.11227E+08
-.11211E+08
-.11461E+08
-.11503E+08
-.11491E+08
-.11438E+08
-.11500E+08
-.11520E+08
-.11410E+08
-.11329E+08
-.11288E+08
-.11352E+08
-.11434E+08
-.11371E+08
-.11478E+08
-.11513E+08
-.11184E+08
-.11218E+08
-.11139E+08
-.11179E+08
-.11210E+08
-.11102E+08
-.11131E+08
-.11087E+08
-.11167E+08
-.11129E+08
-.11186E+08
-.11105E+08
-.11505E+08
-.10817E+08
</weights>
</event>
<event>
      6  10001 -1.11453E+07  8.94427E-01 -1.00000E+00  4.56829E-01
       1    -1     0     0   501     0  0.000000000E+00  0.000000000E+00  1.130030835E+02  1.130030835E+02  0.000000000E+00  0.00000E+00  9.000E+00
      21    -1     0     0   502   501  0.000000000E+00  0.000000000E+00 -1.316893356E-02  1.316893356E-02  0.000000000E+00  0.00000E+00  9.000E+00
      23     2     1     2     0     0 -3.339211101E-01  4.000890214E-01  1.051186646E+02  1.051277702E+02  1.281742501E+00  0.00000E+00  9.000E+00
      11     1     3     3     0     0 -2.744089161E-01  8.639253942E-01  7.495585575E+01  7.496133656E+01  5.110000000E-04  0.00000E+00  9.000E+00
     -11     1     3     3     0     0 -5.951219398E-02 -4.638363727E-01  3.016280881E+01  3.016643369E+01  5.110000000E-04  0.00000E+00  9.000E+00
       1     1     1     2   502     0  3.339211101E-01 -4.000890214E-01  7.871250003E+00  7.888482183E+00  0.000000000E+00  0.00000E+00  9.000E+00
#rwgt            1          22  -2348284.0898274765                3     4117477           0
<weights>
-.11145E+08
-.12351E+08
-.97479E+07
-.15017E+08
-.78107E+07
-.91667E+07
-.13909E+08
-.11180E+08
-.11111E+08
-.10837E+08
-.10834E+08
-.10967E+08
-.11018E+08
-.10857E+08
-.10844E+08
-.11224E+08
-.11200E+08
-.11442E+08
-.11478E+08
-.11468E+08
-.11420E+08
-.11477E+08
-.11500E+08
-.11378E+08
-.11329E+08
-.11283E+08
-.11298E+08
-.11413E+08
-.11353E+08
-.11452E+08
-.11489E+08
-.11177E+08
-.11216E+08
-.11139E+08
-.11173E+08
-.11215E+08
-.11093E+08
-.11105E+08
-.11111E+08
-.11160E+08
-.11133E+08
-.11181E+08
-.11108E+08
-.11485E+08
-.10832E+08
</weights>
</event>
<event>
      7  10001  1.11453E+07  2.87397E+00 -1.00000E+00  2.97741E-01
       4    -1     0     0   501     0  0.000000000E+00  0.000000000E+00  2.397547491E+01  2.397547491E+01  0.000000000E+00  0.00000E+00  9.000E+00
      21    -1     0     0   502   511  0.000000000E+00  0.000000000E+00 -1.495326566E+02  1.495326566E+02  0.000000000E+00  0.00000E+00  9.000E+00
      23     2     1     2     0     0 -6.128313218E-01 -1.659640395E+00  2.267469167E+01  2.276927118E+01  1.080786465E+00  0.00000E+00  9.000E+00
      11     1     3     3     0     0 -1.429792269E-02  1.544940278E-01  1.252929298E+00  1.262499474E+00  5.110000000E-04  0.00000E+00  9.000E+00
     -11     1     3     3     0     0 -5.985333991E-01 -1.814134423E+00  2.142176237E+01  2.150677171E+01  5.110000000E-04  0.00000E+00  9.000E+00
       4     1     1     2   502     0 -1.645555340E+00 -1.178356760E-01  6.907272977E-01  1.788530632E+00  0.000000000E+00  0.00000E+00  9.000E+00
      21     1     1     2   501   511  2.258386662E+00  1.777476071E+00 -1.489226007E+02  1.489503297E+02  1.907348633E-06  0.00000E+00  9.000E+00
#rwgt            1          28   4000505.4409429049                3     4118465           0
<weights>
0.11145E+08
0.14261E+08
0.78155E+07
0.13492E+08
0.85811E+07
0.11686E+08
0.10048E+08
0.11177E+08
0.11110E+08
0.10672E+08
0.10619E+08
0.10896E+08
0.10905E+08
0.10667E+08
0.10634E+08
0.11252E+08
0.11305E+08
0.11657E+08
0.11724E+08
0.11713E+08
0.11617E+08
0.11726E+08
0.11750E+08
0.11567E+08
0.11421E+08
0.11389E+08
0.11350E+08
0.11641E+08
0.11517E+08
0.11713E+08
0.11743E+08
0.11235E+08
0.11234E+08
0.11126E+08
0.11208E+08
0.11213E+08
0.11104E+08
0.11277E+08
0.10886E+08
0.11224E+08
0.11077E+08
0.11209E+08
0.11079E+08
0.11711E+08
0.10633E+08
</weights>
</event>
<event>
      6  10001 -1.11453E+07  8.94427E-01 -1.00000E+00  2.82378E-01
       2    -1     0     0   501     0  0.000000000E+00  0.000000000E+00  3.487214610E+02  3.487214610E+02  0.000000000E+00  0.00000E+00  9.000E+00
      21    -1     0     0   502   501  0.000000000E+00  0.000000000E+00 -1.207913724E-02  1.207913724E-02  0.000000000E+00  0.00000E+00  9.000E+00
      23     2     1     2     0     0 -4.086276773E-01 -7.970517540E-01  3.296599862E+02  3.296630985E+02  1.117927206E+00  0.00000E+00  9.000E+00
      11     1     3     3     0     0 -5.007472124E-01 -9.979991775E-02  2.327587535E+02  2.327593136E+02  5.110000000E-04  0.00000E+00  9.000E+00
     -11     1     3     3     0     0  9.211953505E-02 -6.972518362E-01  9.690123268E+01  9.690378496E+01  5.110000000E-04  0.00000E+00  9.000E+00
       2     1     1     2   502     0  4.086276773E-01  7.970517540E-01  1.904939566E+01  1.907044161E+01  0.000000000E+00  0.00000E+00  9.000E+00
#rwgt            1          24  -22153801.867889818                3     4161826           0
<weights>
-.11145E+08
-.12082E+08
-.99999E+07
-.14691E+08
-.80126E+07
-.91662E+07
-.13909E+08
-.11175E+08
-.11116E+08
-.10829E+08
-.10822E+08
-.10964E+08
-.11011E+08
-.10848E+08
-.10832E+08
-.11225E+08
-.11206E+08
-.11454E+08
-.11493E+08
-.11481E+08
-.11431E+08
-.11491E+08
-.11512E+08
-.11397E+08
-.11329E+08
-.11286E+08
-.11327E+08
-.11426E+08
-.11364E+08
-.11468E+08
-.11504E+08
-.11181E+08
-.11217E+08
-.11138E+08
-.11176E+08
-.11211E+08
-.11098E+08
-.11122E+08
-.11094E+08
-.11164E+08
-.11130E+08
-.11184E+08
-.11105E+08
-.11497E+08
-.10821E+08
</weights>
</event>
<event>
      7  10001  1.11453E+07  2.79733E+00 -1.00000E+00  3.01290E-01
       2    -1     0     0   501     0  0.000000000E+00  0.000000000E+00  3.189237384E+01  3.189237384E+01  0.000000000E+00  0.00000E+00  9.000E+00
      21    -1     0     0   511   501  0.000000000E+00  0.000000000E+00 -6.965675708E+00  6.965675708E+00  0.000000000E+00  0.00000E+00  9.000E+00
      23     2     1     2     0     0  1.083606701E+00  1.796299713E+00  1.799412232E+01  1.816467348E+01  1.328919954E+00  0.00000E+00  9.000E+00
      11     1     3     3     0     0 -2.682113864E-01  6.368442556E-01  4.286371310E+00  4.341714779E+00  5.110000000E-04  0.00000E+00  9.000E+00
     -11     1     3     3     0     0  1.351818087E+00  1.159455457E+00  1.370775101E+01  1.382295870E+01  5.110000000E-04  0.00000E+00  9.000E+00
       2     1     1     2   502     0 -2.478464026E+00  6.284548306E-01  1.340270970E+01  1.364442621E+01  0.000000000E+00  0.00000E+00  9.000E+00
      21     1     1     2   511   502  1.394857326E+00 -2.424754543E+00 -6.470133889E+00  7.048949858E+00  8.429369702E-08  0.00000E+00  9.000E+00
#rwgt            1          24   1861689.0020765983                3     4163118           0
<weights>
0.11145E+08
0.13248E+08
0.89367E+07
0.12612E+08
0.93398E+07
0.11485E+08
0.10356E+08
0.11158E+08
0.11132E+08
0.10766E+08
0.10726E+08
0.10937E+08
0.10961E+08
0.10772E+08
0.10741E+08
0.11237E+08
0.11254E+08
0.11549E+08
0.11597E+08
0.11583E+08
0.11519E+08
0.11605E+08
0.11610E+08
0.11509E+08
0.11345E+08
0.11320E+08
0.11414E+08
0.11528E+08
0.11444E+08
0.11592E+08
0.11617E+08
0.11213E+08
0.11218E+08
0.11129E+08
0.11197E+08
0.11196E+08
0.11117E+08
0.11239E+08
0.10971E+08
0.11194E+08
0.11104E+08
0.11197E+08
0.11091E+08
0.11593E+08
0.10737E+08
</weights>
</event>
<event>
      7  10001  1.11453E+07  3.78084E+00 -1.00000E+00  2.66026E-01
      -4    -1     0     0     0   502  0.000000000E+00  0.000000000E+00  4.820250698E+01  4.820250698E+01  0.000000000E+00  0.00000E+00  9.000E+00
      21    -1     0     0   501   511  0.000000000E+00  0.000000000E+00 -6.084385875E-01  6.084385875E-01  0.000000000E+00  0.00000E+00  9.000E+00
      23     2     1     2     0     0 -1.241964719E+00 -3.924918255E-01  2.474916467E+01  2.488244151E+01  2.217705424E+00  0.00000E+00  9.000E+00
      11     1     3     3     0     0 -9.573507310E-01 -8.799567295E-01  6.731771292E+00  6.856208082E+00  5.110000000E-04  0.00000E+00  9.000E+00
     -11     1     3     3     0     0 -2.846139882E-01  4.874649040E-01  1.801739338E+01  1.802623343E+01  5.110000000E-04  0.00000E+00  9.000E+00
      21     1     1     2   501   502  1.613970825E-01 -3.230647616E+00  1.258783861E+01  1.299680015E+01  2.384185791E-07  0.00000E+00  9.000E+00
      -4     1     1     2     0   511  1.080567637E+00  3.623139442E+00  1.025706511E+01  1.093170392E+01  0.000000000E+00  0.00000E+00  9.000E+00
#rwgt            1           4   101436.63616886741                3     4190668           0
<weights>
0.11145E+08
0.12949E+08
0.94143E+07
0.11349E+08
0.10036E+08
0.11958E+08
0.96296E+07
0.11176E+08
0.11111E+08
0.10762E+08
0.10725E+08
0.10932E+08
0.10965E+08
0.10769E+08
0.10739E+08
0.11241E+08
0.11251E+08
0.11556E+08
0.11584E+08
0.11575E+08
0.11524E+08
0.11606E+08
0.11613E+08
0.11470E+08
0.11367E+08
0.11339E+08
0.11288E+08
0.11535E+08
0.11435E+08
0.11592E+08
0.11618E+08
0.11214E+08
0.11218E+08
0.11127E+08
0.11197E+08
0.11213E+08
0.11099E+08
0.11232E+08
0.10980E+08
0.11194E+08
0.11104E+08
0.11194E+08
0.11095E+08
0.11596E+08
0.10735E+08
</weights>
</event>
<event>
      7  10001  1.11453E+07  2.81831E+00 -1.00000E+00  3.00301E-01
      21    -1     0     0   502   511  0.000000000E+00  0.000000000E+00  3.253126588E+02  3.253126588E+02  0.000000000E+00  0.00000E+00  9.000E+00
      -1    -1     0     0     0   502  0.000000000E+00  0.000000000E+00 -1.059436224E+02  1.059436224E+02  0.000000000E+00  0.00000E+00  9.000E+00
      23     2     1     2     0     0  2.839545211E-01 -4.541574399E-01 -8.579514073E+01  8.580470953E+01  1.164094341E+00  0.00000E+00  9.000E+00
      11     1     3     3     0     0  5.878290260E-01 -2.264135257E-01 -2.358790768E+01  2.359631740E+01  5.110000000E-04  0.00000E+00  9.000E+00
     -11     1     3     3     0     0 -3.038745049E-01 -2.277439142E-01 -6.220723305E+01  6.220839213E+01  5.110000000E-04  0.00000E+00  9.000E+00
      -1     1     1     2     0   501 -6.599026507E-02 -2.355709105E+00 -2.006864469E+01  2.020653903E+01  0.000000000E+00  0.00000E+00  9.000E+00
      21     1     1     2   501   511 -2.179642561E-01  2.809866545E+00  3.252328219E+02  3.252450327E+02  0.000000000E+00  0.00000E+00  9.000E+00
#rwgt            1          15   250704.64644018080                3     4192846           0
<weights>
0.11145E+08
0.11899E+08
0.10730E+08
0.10086E+08
0.11447E+08
0.12126E+08
0.93723E+07
0.11235E+08
0.11056E+08
0.11039E+08
0.11125E+08
0.11071E+08
0.11063E+08
0.11114E+08
0.11118E+08
0.11039E+08
0.11251E+08
0.11225E+08
0.11063E+08
0.11026E+08
0.11245E+08
0.11153E+08
0.11158E+08
0.11177E+08
0.11149E+08
0.11211E+08
0.11079E+08
0.11150E+08
0.10997E+08
0.11121E+08
0.11161E+08
0.11095E+08
0.11198E+08
0.11345E+08
0.10949E+08
0.10985E+08
0.11281E+08
0.10946E+08
0.11374E+08
0.11116E+08
0.11152E+08
0.11343E+08
0.10933E+08
0.11183E+08
0.11097E+08
</weights>
</event>
<event>
      6  10001  1.11453E+07  8.94427E-01 -1.00000E+00  6.00296E-01
      -2    -1     0     0     0   502  0.000000000E+00  0.000000000E+00  4.205805471E-01  4.205805471E-01  0.000000000E+00  0.00000E+00  9.000E+00
       2    -1     0     0   501     0  0.000000000E+00  0.000000000E+00 -3.515603504E+00  3.515603504E+00  0.000000000E+00  0.00000E+00  9.000E+00
      23     2     1     2     0     0 -5.942035789E-01 -2.083913808E-01 -1.863615033E+00  2.553118494E+00  1.627528246E+00  0.00000E+00  9.000E+00
      11     1     3     3     0     0 -5.451587354E-01  1.589117626E-01  8.092464364E-02  5.735852631E-01  5.110000000E-04  0.00000E+00  9.000E+00
     -11     1     3     3     0     0 -4.904484356E-02 -3.673031434E-01 -1.944539676E+00  1.979533230E+00  5.110000000E-04  0.00000E+00  9.000E+00
      21     1     1     2   501   502  5.942035789E-01  2.083913808E-01 -1.231407924E+00  1.383065557E+00  2.580956828E-08  0.00000E+00  9.000E+00
#rwgt            1           8   393340.63566911686                3     4197938           0
<weights>
0.11145E+08
0.13844E+08
0.88262E+07
0.10616E+08
0.10667E+08
0.13131E+08
0.78304E+07
0.10967E+08
0.11324E+08
0.10799E+08
0.10735E+08
0.11011E+08
0.10876E+08
0.10793E+08
0.10753E+08
0.11086E+08
0.11474E+08
0.11512E+08
0.11600E+08
0.11588E+08
0.11488E+08
0.11600E+08
0.11573E+08
0.11476E+08
0.11327E+08
0.11439E+08
0.11053E+08
0.11653E+08
0.11227E+08
0.11606E+08
0.11571E+08
0.11173E+08
0.11253E+08
0.11108E+08
0.11240E+08
0.10856E+08
0.11471E+08
0.11236E+08
0.10944E+08
0.11175E+08
0.11114E+08
0.11269E+08
0.11014E+08
0.11568E+08
0.10763E+08
</weights>
</event>
<event>
      6  10001 -1.11453E+07  8.94427E-01 -1.00000E+00  6.22403E-01
       2    -1     0     0   501     0  0.000000000E+00  0.000000000E+00  5.120499784E+01  5.120499784E+01  0.000000000E+00  0.00000E+00  9.000E+00
      21    -1     0     0   502   501  0.000000000E+00  0.000000000E+00 -1.777700669E-02  1.777700669E-02  0.000000000E+00  0.00000E+00  9.000E+00
      23     2     1     2     0     0  4.293583390E-01 -1.877352881E-01  4.494894971E+01  4.496692801E+01  1.181922538E+00  0.00000E+00  9.000E+00
      11     1     3     3     0     0 -1.858457053E-01 -5.180394254E-01  1.569733896E+01  1.570698424E+01  5.110000000E-04  0.00000E+00  9.000E+00
     -11     1     3     3     0     0  6.152040443E-01  3.303041373E-01  2.925161076E+01  2.925994376E+01  5.110000000E-04  0.00000E+00  9.000E+00
       2     1     1     2   502     0 -4.293583390E-01  1.877352881E-01  6.238271114E+00  6.255846834E+00  0.000000000E+00  0.00000E+00  9.000E+00
#rwgt            1          24  -8920778.4615790714                3     4199147           0
<weights>
-.11145E+08
-.12717E+08
-.94017E+07
-.15465E+08
-.75334E+07
-.91653E+07
-.13909E+08
-.11178E+08
-.11113E+08
-.10845E+08
-.10845E+08
-.10971E+08
-.11023E+08
-.10868E+08
-.10854E+08
-.11223E+08
-.11193E+08
-.11432E+08
-.11464E+08
-.11454E+08
-.11411E+08
-.11465E+08
-.11485E+08
-.11371E+08
-.11321E+08
-.11275E+08
-.11303E+08
-.11402E+08
-.11346E+08
-.11440E+08
-.11476E+08
-.11174E+08
-.11215E+08
-.11140E+08
-.11172E+08
-.11214E+08
-.11094E+08
-.11101E+08
-.11124E+08
-.11156E+08
-.11136E+08
-.11180E+08
-.11109E+08
-.11473E+08
-.10842E+08
</weights>
</event>
<event>
      6  10001 -1.11453E+07  8.94427E-01 -1.00000E+00  2.31029E-01
       2    -1     0     0   501     0  0.000000000E+00  0.000000000E+00  8.903942817E+02  8.903942817E+02  0.000000000E+00  0.00000E+00  9.000E+00
      21    -1     0     0   502   501  0.000000000E+00  0.000000000E+00 -1.377465192E-03  1.377465192E-03  0.000000000E+00  0.00000E+00  9.000E+00
      23     2     1     2     0     0 -3.524708671E-01  2.542852566E-01  7.681527388E+02  7.681547211E+02  1.690120003E+00  0.00000E+00  9.000E+00
      11     1     3     3     0     0 -6.099070413E-01  6.883931822E-01  6.741546945E+02  6.741553219E+02  5.110000000E-04  0.00000E+00  9.000E+00
     -11     1     3     3     0     0  2.574361742E-01 -4.341079256E-01  9.399804427E+01  9.399939920E+01  5.110000000E-04  0.00000E+00  9.000E+00
       2     1     1     2   502     0  3.524708671E-01 -2.542852566E-01  1.222401654E+02  1.222409381E+02  0.000000000E+00  0.00000E+00  9.000E+00
#rwgt            1          24  -17752111.693752225                3     4203433           0
<weights>
-.11146E+08
-.11403E+08
-.10689E+08
-.13897E+08
-.85658E+07
-.91466E+07
-.13909E+08
-.11170E+08
-.11124E+08
-.10822E+08
-.10811E+08
-.10962E+08
-.11005E+08
-.10839E+08
-.10822E+08
-.11227E+08
-.11214E+08
-.11466E+08
-.11511E+08
-.11498E+08
-.11443E+08
-.11507E+08
-.11526E+08
-.11421E+08
-.11329E+08
-.11288E+08
-.11374E+08
-.11439E+08
-.11376E+08
-.11485E+08
-.11519E+08
-.11186E+08
-.11218E+08
-.11139E+08
-.11179E+08
-.11208E+08
-.11105E+08
-.11138E+08
-.11081E+08
-.11169E+08
-.11128E+08
-.11187E+08
-.11104E+08
-.11510E+08
-.10812E+08
</weights>
</event>
<event>
      6  10001 -1.11453E+07  8.94427E-01 -1.00000E+00  1.98308E-01
       2    -1     0     0   501     0  0.000000000E+00  0.000000000E+00  7.288385615E-03  7.288385615E-03  0.000000000E+00  0.00000E+00  9.000E+00
      -2    -1     0     0     0   502  0.000000000E+00  0.000000000E+00 -1.139639998E+02  1.139639998E+02  0.000000000E+00  0.00000E+00  9.000E+00
      23     2     1     2     0     0  2.831588488E-01 -3.755356057E-02 -1.072978072E+02  1.073062605E+02  1.316250530E+00  0.00000E+00  9.000E+00
      11     1     3     3     0     0 -7.228182773E-02  4.721829334E-01 -1.814227792E+01  1.814856550E+01  5.110000000E-04  0.00000E+00  9.000E+00
     -11     1     3     3     0     0  3.554406765E-01 -5.097364939E-01 -8.915552933E+01  8.915769501E+01  5.110000000E-04  0.00000E+00  9.000E+00
      21     1     1     2   501   502 -2.831588488E-01  3.755356057E-02 -6.658904127E+00  6.665027635E+00  2.230201594E-07  0.00000E+00  9.000E+00
#rwgt            1          23  -256006.82960416764                3     4203860           0
<weights>
-.11145E+08
-.12659E+08
-.94650E+07
-.15386E+08
-.75838E+07
-.91702E+07
-.13910E+08
-.11150E+08
-.11138E+08
-.11197E+08
-.11222E+08
-.11104E+08
-.11184E+08
-.11234E+08
-.11230E+08
-.11052E+08
-.11189E+08
-.11112E+08
-.10962E+08
-.10936E+08
-.11132E+08
-.11045E+08
-.11026E+08
-.11138E+08
-.11037E+08
-.11093E+08
-.11136E+08
-.11059E+08
-.10982E+08
-.11041E+08
-.11052E+08
-.11150E+08
-.11107E+08
-.11292E+08
-.11000E+08
-.11075E+08
-.11194E+08
-.11107E+08
-.11210E+08
-.11097E+08
-.11174E+08
-.11279E+08
-.11002E+08
-.11054E+08
-.11220E+08
</weights>
</event>
<event>
      7  10001  1.11453E+07  2.81944E+00 -1.00000E+00  3.00248E-01
      -3    -1     0     0     0   501  0.000000000E+00  0.000000000E+00  3.198794917E+02  3.198794917E+02  0.000000000E+00  0.00000E+00  9.000E+00
      -3    -1     0     0     0   502  0.000000000E+00  0.000000000E+00 -1.021731082E+00  1.021731082E+00  0.000000000E+00  0.00000E+00  9.000E+00
      23     2     1     2     0     0 -4.126898794E-01  1.004596095E+00  1.117238950E-02  1.970954617E+00  1.644691773E+00  0.00000E+00  9.000E+00
      11     1     3     3     0     0  8.765682758E-02 -1.744442515E-01 -5.417766189E-01  5.758790517E-01  5.110000000E-04  0.00000E+00  9.000E+00
     -11     1     3     3     0     0 -5.003467070E-01  1.179040347E+00  5.529490084E-01  1.395075566E+00  5.110000000E-04  0.00000E+00  9.000E+00
      -3     1     1     2     0   501  9.377388959E-01  1.765524369E+00  2.667161595E+02  2.667236513E+02  0.000000000E+00  0.00000E+00  9.000E+00
      -3     1     1     2     0   502 -5.250490165E-01 -2.770120464E+00  5.213042874E+01  5.220661686E+01  0.000000000E+00  0.00000E+00  9.000E+00
#rwgt            1          13   1237212.1587571439                3     4205143           0
<weights>
0.11145E+08
0.10601E+08
0.11679E+08
0.12122E+08
0.10004E+08
0.97515E+07
0.13018E+08
0.11191E+08
0.11096E+08
0.10811E+08
0.10811E+08
0.11003E+08
0.10952E+08
0.10830E+08
0.10818E+08
0.11238E+08
0.11150E+08
0.11315E+08
0.11837E+08
0.11763E+08
0.11308E+08
0.11497E+08
0.11556E+08
0.11991E+08
0.11040E+08
0.10806E+08
0.13365E+08
0.11287E+08
0.11623E+08
0.11475E+08
0.11542E+08
0.11214E+08
0.11191E+08
0.11144E+08
0.11173E+08
0.11233E+08
0.11074E+08
0.11153E+08
0.11056E+08
0.11177E+08
0.11117E+08
0.11197E+08
0.11091E+08
0.11516E+08
0.10805E+08
</weights>
</event>
<event>
      7  10001  1.11453E+07  1.25764E+00 -1.00000E+00  4.81233E-01
      -2    -1     0     0     0   502  0.000000000E+00  0.000000000E+00  3.958148035E+00  3.958148035E+00  0.000000000E+00  0.00000E+00  9.000E+00
      21    -1     0     0   502   511  0.000000000E+00  0.000000000E+00 -6.027639009E+01  6.027639009E+01  0.000000000E+00  0.00000E+00  9.000E+00
      23     2     1     2     0     0 -2.736267139E-01 -5.005986264E-01  3.575285155E+00  4.077787084E+00  1.876223069E+00  0.00000E+00  9.000E+00
      11     1     3     3     0     0  2.468350872E-01 -3.565786641E-01 -2.769611084E-02  4.345609734E-01  5.110000000E-04  0.00000E+00  9.000E+00
     -11     1     3     3     0     0 -5.204618011E-01 -1.440199623E-01  3.602981265E+00  3.643226111E+00  5.110000000E-04  0.00000E+00  9.000E+00
      -2     1     1     2     0   501  1.977625242E-01 -7.547464896E-01 -1.093708693E+00  1.343484642E+00  0.000000000E+00  0.00000E+00  9.000E+00
      21     1     1     2   501   511  7.586418968E-02  1.255345116E+00 -5.879981852E+01  5.881326640E+01  0.000000000E+00  0.00000E+00  9.000E+00
#rwgt            1           7   2642163.1413423461                3     4226143           0
<weights>
0.11145E+08
0.14531E+08
0.76704E+07
0.12786E+08
0.91755E+07
0.12396E+08
0.89577E+07
0.11185E+08
0.11100E+08
0.10680E+08
0.10620E+08
0.10895E+08
0.10913E+08
0.10675E+08
0.10637E+08
0.11257E+08
0.11301E+08
0.11664E+08
0.11695E+08
0.11689E+08
0.11622E+08
0.11727E+08
0.11736E+08
0.11537E+08
0.11427E+08
0.11406E+08
0.11248E+08
0.11649E+08
0.11509E+08
0.11717E+08
0.11741E+08
0.11242E+08
0.11226E+08
0.11119E+08
0.11215E+08
0.11223E+08
0.11092E+08
0.11304E+08
0.10871E+08
0.11225E+08
0.11077E+08
0.11205E+08
0.11083E+08
0.11706E+08
0.10638E+08
</weights>
</event>
<event>
      6  10001 -1.11453E+07  8.94427E-01 -1.00000E+00  5.48259E-01
       2    -1     0     0   501     0  0.000000000E+00  0.000000000E+00  1.857887879E+02  1.857887879E+02  0.000000000E+00  0.00000E+00  9.000E+00
      21    -1     0     0   502   501  0.000000000E+00  0.000000000E+00 -9.330198286E-03  9.330198286E-03  0.000000000E+00  0.00000E+00  9.000E+00
      23     2     1     2     0     0  2.114619270E-01  2.025273972E-01  1.824200819E+02  1.824260061E+02  1.440725806E+00  0.00000E+00  9.000E+00
      11     1     3     3     0     0  1.862287543E-01 -1.350724430E-02  1.783632564E+02  1.783633541E+02  5.110000000E-04  0.00000E+00  9.000E+00
     -11     1     3     3     0     0  2.523317272E-02  2.160346415E-01  4.056825541E+00  4.062652017E+00  5.110000000E-04  0.00000E+00  9.000E+00
       2     1     1     2   502     0 -2.114619270E-01 -2.025273972E-01  3.359375781E+00  3.372111969E+00  0.000000000E+00  0.00000E+00  9.000E+00
#rwgt            1          24  -25685728.969310790                3     4269471           0
<weights>
-.11145E+08
-.11679E+08
-.10460E+08
-.14200E+08
-.83810E+07
-.91669E+07
-.13909E+08
-.11177E+08
-.11114E+08
-.10832E+08
-.10827E+08
-.10965E+08
-.11014E+08
-.10852E+08
-.10837E+08
-.11225E+08
-.11204E+08
-.11450E+08
-.11486E+08
-.11476E+08
-.11427E+08
-.11486E+08
-.11507E+08
-.11390E+08
-.11328E+08
-.11284E+08
-.11315E+08
-.11421E+08
-.11360E+08
-.11462E+08
-.11498E+08
-.11179E+08
-.11216E+08
-.11139E+08
-.11175E+08
-.11212E+08
-.11096E+08
-.11116E+08
-.11100E+08
-.11162E+08
-.11131E+08
-.11183E+08
-.11106E+08
-.11492E+08
-.10826E+08
</weights>
</event>
<event>
      6  10001 -1.11453E+07  8.94427E-01 -1.00000E+00  1.95799E-01
      -2    -1     0     0     0   502  0.000000000E+00  0.000000000E+00  1.059352767E-02  1.059352767E-02  0.000000000E+00  0.00000E+00  9.000E+00
       2    -1     0     0   501     0  0.000000000E+00  0.000000000E+00 -3.545668202E+02  3.545668202E+02  0.000000000E+00  0.00000E+00  9.000E+00
      23     2     1     2     0     0 -6.987764830E-03 -4.262749789E-01 -3.020156413E+02  3.020350986E+02  3.401688736E+00  0.00000E+00  9.000E+00
      11     1     3     3     0     0 -2.294157334E-01 -1.483776083E+00 -2.635610957E+02  2.635653722E+02  5.110000000E-04  0.00000E+00  9.000E+00
     -11     1     3     3     0     0  2.224279686E-01  1.057501104E+00 -3.845454554E+01  3.846972648E+01  5.110000000E-04  0.00000E+00  9.000E+00
      21     1     1     2   501   502  6.987764830E-03  4.262749789E-01 -5.254058539E+01  5.254231507E+01  0.000000000E+00  0.00000E+00  9.000E+00
#rwgt            1           8  -10571496.023778902                3     4271012           0
<weights>
-.11145E+08
-.12155E+08
-.99554E+07
-.14773E+08
-.79768E+07
-.91702E+07
-.13910E+08
-.11128E+08
-.11162E+08
-.11168E+08
-.11157E+08
-.11026E+08
-.11285E+08
-.11161E+08
-.11158E+08
-.11328E+08
-.10870E+08
-.11391E+08
-.10773E+08
-.10725E+08
-.11419E+08
-.11105E+08
-.11164E+08
-.11097E+08
-.11149E+08
-.11256E+08
-.11071E+08
-.10850E+08
-.11445E+08
-.11080E+08
-.11172E+08
-.11023E+08
-.11263E+08
-.11407E+08
-.10816E+08
-.11115E+08
-.11171E+08
-.11160E+08
-.11134E+08
-.11221E+08
-.11076E+08
-.11144E+08
-.11146E+08
-.11127E+08
-.11163E+08
</weights>
</event>
<event>
      7  10001  1.11453E+07  2.16551E+00 -1.00000E+00  3.39814E-01
      21    -1     0     0   502   511  0.000000000E+00  0.000000000E+00  1.996177609E+00  1.996177609E+00  0.000000000E+00  0.00000E+00  9.000E+00
       1    -1     0     0   501     0  0.000000000E+00  0.000000000E+00 -7.596173170E+01  7.596173170E+01  0.000000000E+00  0.00000E+00  9.000E+00
      23     2     1     2     0     0  4.189328450E+00 -1.307457608E+00 -5.361992553E+01  5.386883594E+01  2.737727771E+00  0.00000E+00  9.000E+00
      11     1     3     3     0     0  2.179428839E+00 -1.953028648E+00 -2.488857213E+01  2.506003299E+01  5.110000000E-04  0.00000E+00  9.000E+00
     -11     1     3     3     0     0  2.009899611E+00  6.455710393E-01 -2.873135341E+01  2.880880295E+01  5.110000000E-04  0.00000E+00  9.000E+00
       1     1     1     2   502     0 -2.046839071E+00  1.622407832E+00 -2.148427143E+01  2.164245079E+01  0.000000000E+00  0.00000E+00  9.000E+00
      21     1     1     2   501   511 -2.142489379E+00 -3.149502240E-01  1.138642880E+00  2.446622568E+00  1.074538015E-07  0.00000E+00  9.000E+00
#rwgt            1          16   229035.71791433886                3     4271187           0
<weights>
0.11145E+08
0.12030E+08
0.10301E+08
0.11656E+08
0.10266E+08
0.11211E+08
0.10777E+08
0.11226E+08
0.11065E+08
0.11102E+08
0.11107E+08
0.11021E+08
0.11168E+08
0.11123E+08
0.11130E+08
0.10681E+08
0.11629E+08
0.11008E+08
0.11239E+08
0.11220E+08
0.10993E+08
0.11173E+08
0.11129E+08
0.11222E+08
0.11071E+08
0.11166E+08
0.11106E+08
0.11125E+08
0.11012E+08
0.11144E+08
0.11147E+08
0.11102E+08
0.11189E+08
0.11001E+08
0.11221E+08
0.11044E+08
0.11234E+08
0.11016E+08
0.11292E+08
0.11154E+08
0.11125E+08
0.11244E+08
0.11039E+08
0.11169E+08
0.11116E+08
</weights>
</event>
<event>
      6  10001  1.11453E+07  8.94427E-01 -1.00000E+00  6.06225E-01
      -1    -1     0     0     0   502  0.000000000E+00  0.000000000E+00  1.524098072E-01  1.524098072E-01  0.000000000E+00  0.00000E+00  9.000E+00
       1    -1     0     0   501     0  0.000000000E+00  0.000000000E+00 -6.101595482E+01  6.101595482E+01  0.000000000E+00  0.00000E+00  9.000E+00
      23     2     1     2     0     0  4.150782990E-01 -2.008887231E-01 -3.046904337E+00  3.349885010E+00  1.313566620E+00  0.00000E+00  9.000E+00
      11     1     3     3     0     0 -2.408119114E-01  2.277569817E-01 -2.075806254E+00  2.102102634E+00  5.110000000E-04  0.00000E+00  9.000E+00
     -11     1     3     3     0     0  6.558902104E-01 -4.286457048E-01 -9.710980833E-01  1.247782376E+00  5.110000000E-04  0.00000E+00  9.000E+00
      21     1     1     2   501   502 -4.150782990E-01  2.008887231E-01 -5.781664067E+01  5.781847961E+01  9.536743164E-07  0.00000E+00  9.000E+00
#rwgt            1          10   226173.21356833985                3     4277738           0
<weights>
0.11145E+08
0.11734E+08
0.10536E+08
0.12193E+08
0.98357E+07
0.10584E+08
0.11739E+08
0.11219E+08
0.11071E+08
0.11061E+08
0.11074E+08
0.10972E+08
0.11200E+08
0.11090E+08
0.11098E+08
0.10875E+08
0.11399E+08
0.11148E+08
0.11145E+08
0.11110E+08
0.11148E+08
0.11189E+08
0.11181E+08
0.11178E+08
0.11164E+08
0.11252E+08
0.11060E+08
0.11086E+08
0.11128E+08
0.11146E+08
0.11187E+08
0.11100E+08
0.11201E+08
0.11126E+08
0.11096E+08
0.11063E+08
0.11222E+08
0.10958E+08
0.11349E+08
0.11119E+08
0.11159E+08
0.11224E+08
0.11061E+08
0.11206E+08
0.11079E+08
</weights>
</event>
<event>
      6  10001 -1.11453E+07  8.94427E-01 -1.00000E+00  1.41888E-01
       4    -1     0     0   501     0  0.000000000E+00  0.000000000E+00  5.290058977E+01  5.290058977E+01  0.000000000E+00  0.00000E+00  9.000E+00
      21    -1     0     0   502   501  0.000000000E+00  0.000000000E+00 -2.333653735E-02  2.333653735E-02  0.000000000E+00  0.00000E+00  9.000E+00
      23     2     1     2     0     0  1.219311524E-01 -4.614139795E-01  4.740290330E+01  4.742881237E+01  1.493060921E+00  0.00000E+00  9.000E+00
      11     1     3     3     0     0 -6.486406209E-01 -2.107888943E-01  2.908506746E+01  2.909306302E+01  5.110000000E-04  0.00000E+00  9.000E+00
     -11     1     3     3     0     0  7.705717733E-01 -2.506250853E-01  1.831783584E+01  1.833574934E+01  5.110000000E-04  0.00000E+00  9.000E+00
       4     1     1     2   502     0 -1.219311524E-01  4.614139795E-01  5.474349932E+00  5.495113943E+00  0.000000000E+00  0.00000E+00  9.000E+00
#rwgt            1          28  -3842684.1264323099                3     4281101           0
<weights>
-.11144E+08
-.13189E+08
-.89525E+07
-.16045E+08
-.71736E+07
-.91609E+07
-.13907E+08
-.11170E+08
-.11119E+08
-.10822E+08
-.10812E+08
-.10961E+08
-.11005E+08
-.10839E+08
-.10822E+08
-.11224E+08
-.11210E+08
-.11461E+08
-.11503E+08
-.11491E+08
-.11437E+08
-.11500E+08
-.11520E+08
-.11411E+08
-.11327E+08
-.11286E+08
-.11353E+08
-.11434E+08
-.11371E+08
-.11478E+08
-.11513E+08
-.11182E+08
-.11216E+08
-.11136E+08
-.11176E+08
-.11207E+08
-.11100E+08
-.11131E+08
-.11082E+08
-.11165E+08
-.11126E+08
-.11184E+08
-.11102E+08
-.11504E+08
-.10812E+08
</weights>
</event>
<event>
      6  10001 -1.11453E+07  8.94427E-01 -1.00000E+00  6.54119E-01
       4    -1     0     0   501     0  0.000000000E+00  0.000000000E+00  6.533851492E+01  6.533851492E+01  0.000000000E+00  0.00000E+00  9.000E+00
      21    -1     0     0   502   501  0.000000000E+00  0.000000000E+00 -1.098519694E-02  1.098519694E-02  0.000000000E+00  0.00000E+00  9.000E+00
      23     2     1     2     0     0  2.055325262E-01  3.244843430E-01  5.920868157E+01  5.921860814E+01  1.013924611E+00  0.00000E+00  9.000E+00
      11     1     3     3     0     0  4.321206863E-01  5.689550030E-01  4.678873011E+01  4.679418451E+01  5.110000000E-04  0.00000E+00  9.000E+00
     -11     1     3     3     0     0 -2.265881601E-01 -2.444706600E-01  1.241995146E+01  1.242442363E+01  5.110000000E-04  0.00000E+00  9.000E+00
       4     1     1     2   502     0 -2.055325262E-01 -3.244843430E-01  6.118848152E+00  6.130891976E+00  0.000000000E+00  0.00000E+00  9.000E+00
#rwgt            1          28  -2613337.2454809188                3     4284991           0
<weights>
-.11147E+08
-.12814E+08
-.92715E+07
-.15609E+08
-.74299E+07
-.91505E+07
-.13909E+08
-.11176E+08
-.11118E+08
-.10830E+08
-.10822E+08
-.10965E+08
-.11012E+08
-.10848E+08
-.10833E+08
-.11226E+08
-.11208E+08
-.11456E+08
-.11495E+08
-.11484E+08
-.11433E+08
-.11493E+08
-.11514E+08
-.11400E+08
-.11330E+08
-.11287E+08
-.11333E+08
-.11428E+08
-.11366E+08
-.11470E+08
-.11506E+08
-.11182E+08
-.11218E+08
-.11139E+08
-.11177E+08
-.11212E+08
-.11100E+08
-.11124E+08
-.11095E+08
-.11165E+08
-.11131E+08
-.11185E+08
-.11106E+08
-.11499E+08
-.10822E+08
</weights>
</event>
<event>
      7  10001  1.11453E+07  7.47905E+00 -1.00000E+00  2.10799E-01
      -2    -1     0     0     0   502  0.000000000E+00  0.000000000E+00  4.075975378E+00  4.075975378E+00  0.000000000E+00  0.00000E+00  9.000E+00
      21    -1     0     0   502   501  0.000000000E+00  0.000000000E+00 -1.864048425E+01  1.864048425E+01  0.000000000E+00  0.00000E+00  9.000E+00
      23     2     1     2     0     0 -4.461439947E-01  2.788091585E-01  3.920957190E+00  4.189049879E+00  1.377481248E+00  0.00000E+00  9.000E+00
      11     1     3     3     0     0 -6.736489790E-01 -2.360491898E-01  3.176684028E+00  3.255893709E+00  5.110000000E-04  0.00000E+00  9.000E+00
     -11     1     3     3     0     0  2.275049843E-01  5.148583483E-01  7.442731621E-01  9.331561700E-01  5.110000000E-04  0.00000E+00  9.000E+00
      -2     1     1     2     0   511  6.849273195E-02 -1.413754177E-01 -3.102830806E-01  3.477842049E-01  0.000000000E+00  0.00000E+00  9.000E+00
      21     1     1     2   511   501  3.776512628E-01 -1.374337408E-01 -1.817518299E+01  1.817962555E+01  3.189823189E-06  0.00000E+00  9.000E+00
#rwgt            2         101   1935392.2101093992                3     4288519           0
<weights>
0.11143E+08
0.10427E+08
0.11797E+08
0.12673E+08
0.94523E+07
0.91683E+07
0.13907E+08
0.11213E+08
0.11072E+08
0.10918E+08
0.10962E+08
0.10992E+08
0.11095E+08
0.10956E+08
0.10965E+08
0.11202E+08
0.11141E+08
0.11317E+08
0.11325E+08
0.11321E+08
0.11304E+08
0.11321E+08
0.11364E+08
0.11193E+08
0.11328E+08
0.11281E+08
0.11065E+08
0.11289E+08
0.11223E+08
0.11281E+08
0.11333E+08
0.11129E+08
0.11214E+08
0.11147E+08
0.11146E+08
0.11259E+08
0.11040E+08
0.10939E+08
0.11290E+08
0.11115E+08
0.11169E+08
0.11151E+08
0.11135E+08
0.11353E+08
0.10942E+08
</weights>
</event>
<event>
      7  10001  1.11453E+07  1.34863E+00 -1.00000E+00  4.59276E-01
      21    -1     0     0   502   512  0.000000000E+00  0.000000000E+00  6.803602219E+01  6.803602219E+01  0.000000000E+00  0.00000E+00  9.000E+00
      -3    -1     0     0     0   502  0.000000000E+00  0.000000000E+00 -5.146153354E+00  5.146153354E+00  0.000000000E+00  0.00000E+00  9.000E+00
      23     2     1     2     0     0  9.292270428E-02 -3.290540972E-01 -4.638940018E+00  5.013034351E+00  1.869181021E+00  0.00000E+00  9.000E+00
      11     1     3     3     0     0  9.380888769E-01  1.121478169E-01 -2.193077234E+00  2.387922924E+00  5.110000000E-04  0.00000E+00  9.000E+00
     -11     1     3     3     0     0 -8.451661727E-01 -4.412019141E-01 -2.445862783E+00  2.625111427E+00  5.110000000E-04  0.00000E+00  9.000E+00
      -3     1     1     2     0   501  9.432020044E-01 -5.342166640E-01  6.240315731E-01  1.250772909E+00  0.000000000E+00  0.00000E+00  9.000E+00
      21     1     1     2   501   512 -1.036124709E+00  8.632707612E-01  6.690477728E+01  6.691836828E+01  1.348699152E-06  0.00000E+00  9.000E+00
#rwgt            1          13   404522.26778309350                3     4288941           0
<weights>
0.11145E+08
0.14486E+08
0.78406E+07
0.13341E+08
0.88383E+07
0.11946E+08
0.96487E+07
0.11187E+08
0.11097E+08
0.10730E+08
0.10763E+08
0.11129E+08
0.10732E+08
0.10754E+08
0.10746E+08
0.11485E+08
0.10727E+08
0.11125E+08
0.12301E+08
0.12214E+08
0.11114E+08
0.11543E+08
0.11713E+08
0.12681E+08
0.10441E+08
0.93377E+07
0.15488E+08
0.10868E+08
0.12366E+08
0.11510E+08
0.11676E+08
0.11298E+08
0.11131E+08
0.11171E+08
0.11156E+08
0.11265E+08
0.11043E+08
0.11208E+08
0.10941E+08
0.11220E+08
0.11074E+08
0.11255E+08
0.11029E+08
0.11596E+08
0.10736E+08
</weights>
</event>
<event>
      6  10001 -1.11453E+07  8.94427E-01 -1.00000E+00  4.27946E-01
      -4    -1     0     0     0   502  0.000000000E+00  0.000000000E+00  1.531329860E+01  1.531329860E+01  0.000000000E+00  0.00000E+00  9.000E+00
      21    -1     0     0   502   501  0.000000000E+00  0.000000000E+00 -7.038267897E-02  7.038267897E-02  0.000000000E+00  0.00000E+00  9.000E+00
      23     2     1     2     0     0  7.403665274E-02 -2.733736662E-01  1.359930979E+01  1.371585164E+01  1.761574548E+00  0.00000E+00  9.000E+00
      11     1     3     3     0     0 -2.345950264E-01  6.597298032E-01  3.535812016E+00  3.604475705E+00  5.110000000E-04  0.00000E+00  9.000E+00
     -11     1     3     3     0     0  3.086316791E-01 -9.331034694E-01  1.006349777E+01  1.011137593E+01  5.110000000E-04  0.00000E+00  9.000E+00
      -4     1     1     2     0   501 -7.403665274E-02  2.733736662E-01  1.643606139E+00  1.667829646E+00  0.000000000E+00  0.00000E+00  9.000E+00
#rwgt            1           3  -2951058.9826196050                3     4301394           0
<weights>
-.11145E+08
-.10750E+08
-.10987E+08
-.16076E+08
-.71976E+07
-.73079E+07
-.16769E+08
-.11213E+08
-.11073E+08
-.10933E+08
-.10970E+08
-.11004E+08
-.11094E+08
-.10971E+08
-.10975E+08
-.11212E+08
-.11125E+08
-.11315E+08
-.11304E+08
-.11303E+08
-.11301E+08
-.11318E+08
-.11347E+08
-.11194E+08
-.11303E+08
-.11238E+08
-.11048E+08
-.11274E+08
-.11238E+08
-.11282E+08
-.11329E+08
-.11138E+08
-.11207E+08
-.11148E+08
-.11150E+08
-.11243E+08
-.11058E+08
-.10969E+08
-.11272E+08
-.11118E+08
-.11170E+08
-.11160E+08
-.11131E+08
-.11345E+08
-.10954E+08
</weights>
</event>
<event>
      6  10001 -1.11453E+07  8.94427E-01 -1.00000E+00  1.52876E-01
      21    -1     0     0   502   501  0.000000000E+00  0.000000000E+00  2.236890075E-02  2.236890075E-02  0.000000000E+00  0.00000E+00  9.000E+00
      -2    -1     0     0     0   502  0.000000000E+00  0.000000000E+00 -2.508451213E+01  2.508451213E+01  0.000000000E+00  0.00000E+00  9.000E+00
      23     2     1     2     0     0  2.690092984E-01  2.892254958E-01 -1.937936617E+01  1.941039330E+01  1.023482986E+00  0.00000E+00  9.000E+00
      11     1     3     3     0     0  6.606313110E-01  2.194338684E-01 -1.302358050E+01  1.304217137E+01  5.110000000E-04  0.00000E+00  9.000E+00
     -11     1     3     3     0     0 -3.916220127E-01  6.979162743E-02 -6.355785674E+00  6.368221924E+00  5.110000000E-04  0.00000E+00  9.000E+00
      -2     1     1     2     0   501 -2.690092984E-01 -2.892254958E-01 -5.682777061E+00  5.696487735E+00  0.000000000E+00  0.00000E+00  9.000E+00
#rwgt            1          14  -8858070.4777929317                3     4318510           0
<weights>
-.11145E+08
-.12999E+08
-.92008E+07
-.15798E+08
-.73722E+07
-.91702E+07
-.13910E+08
-.11217E+08
-.11072E+08
-.10928E+08
-.10983E+08
-.11015E+08
-.11054E+08
-.10973E+08
-.10984E+08
-.11117E+08
-.11244E+08
-.11319E+08
-.11284E+08
-.11263E+08
-.11320E+08
-.11299E+08
-.11344E+08
-.11227E+08
-.11284E+08
-.11331E+08
-.11039E+08
-.11297E+08
-.11129E+08
-.11261E+08
-.11305E+08
-.11088E+08
-.11252E+08
-.11223E+08
-.11076E+08
-.11063E+08
-.11233E+08
-.10909E+08
-.11342E+08
-.11115E+08
-.11165E+08
-.11229E+08
-.11056E+08
-.11334E+08
-.10963E+08
</weights>
</event>
<event>
      6  10001  1.11453E+07  8.94427E-01 -1.00000E+00  5.97907E-01
      -4    -1     0     0     0   502  0.000000000E+00  0.000000000E+00  2.508503169E-01  2.508503169E-01  0.000000000E+00  0.00000E+00  9.000E+00
       4    -1     0     0   501     0  0.000000000E+00  0.000000000E+00 -1.436011606E+01  1.436011606E+01  0.000000000E+00  0.00000E+00  9.000E+00
      23     2     1     2     0     0  1.069466302E-01 -2.477733462E-01 -1.873772854E+00  2.372497705E+00  1.429997006E+00  0.00000E+00  9.000E+00
      11     1     3     3     0     0  1.782110603E-02 -5.938791517E-01 -1.922112049E+00  2.011846174E+00  5.110000000E-04  0.00000E+00  9.000E+00
     -11     1     3     3     0     0  8.912552416E-02  3.461058055E-01  4.833919452E-02  3.606515306E-01  5.110000000E-04  0.00000E+00  9.000E+00
      21     1     1     2   501   502 -1.069466302E-01  2.477733462E-01 -1.223549289E+01  1.223846867E+01  1.685873940E-07  0.00000E+00  9.000E+00
#rwgt            1           4   331246.49566825642                3     4320198           0
<weights>
0.11145E+08
0.13246E+08
0.90986E+07
0.12406E+08
0.93407E+07
0.11492E+08
0.10346E+08
0.11246E+08
0.11041E+08
0.10731E+08
0.10760E+08
0.10903E+08
0.11001E+08
0.10758E+08
0.10764E+08
0.11229E+08
0.11245E+08
0.11523E+08
0.11571E+08
0.11568E+08
0.11495E+08
0.11550E+08
0.11628E+08
0.11309E+08
0.11495E+08
0.11460E+08
0.11012E+08
0.11513E+08
0.11344E+08
0.11505E+08
0.11570E+08
0.11163E+08
0.11254E+08
0.11142E+08
0.11171E+08
0.11314E+08
0.10998E+08
0.10966E+08
0.11170E+08
0.11166E+08
0.11129E+08
0.11169E+08
0.11121E+08
0.11581E+08
0.10743E+08
</weights>
</event>
<event>
      7  10001  1.11453E+07  8.94427E-01 -1.00000E+00  6.07649E-01
      21    -1     0     0   511   502  0.000000000E+00  0.000000000E+00  5.365067967E+01  5.365067967E+01  0.000000000E+00  0.00000E+00  9.000E+00
       4    -1     0     0   501     0  0.000000000E+00  0.000000000E+00 -1.719611843E-01  1.719611843E-01  0.000000000E+00  0.00000E+00  9.000E+00
      23     2     1     2     0     0  3.665866298E-01 -3.182232407E-01  2.978212296E+00  3.308809528E+00  1.357505146E+00  0.00000E+00  9.000E+00
      11     1     3     3     0     0  2.014890137E-01  1.659619585E-01  2.725973766E+00  2.738443797E+00  5.110000000E-04  0.00000E+00  9.000E+00
     -11     1     3     3     0     0  1.650976161E-01 -4.841851993E-01  2.522385303E-01  5.703657312E-01  5.110000000E-04  0.00000E+00  9.000E+00
      21     1     1     2   501   502 -5.747504937E-01 -5.123360231E-02  4.077676023E+01  4.078084278E+01  6.743495762E-07  0.00000E+00  9.000E+00
       4     1     1     2   511     0  2.081638638E-01  3.694568430E-01  9.723745965E+00  9.732988551E+00  0.000000000E+00  0.00000E+00  9.000E+00
#rwgt            2         196   847980.80290744640                3     4325770           0
<weights>
0.11145E+08
0.11042E+08
0.11035E+08
0.13420E+08
0.88422E+07
0.91702E+07
0.13910E+08
0.11183E+08
0.11105E+08
0.10804E+08
0.10787E+08
0.10951E+08
0.10997E+08
0.10819E+08
0.10799E+08
0.11232E+08
0.11221E+08
0.11493E+08
0.11518E+08
0.11510E+08
0.11466E+08
0.11532E+08
0.11548E+08
0.11407E+08
0.11350E+08
0.11312E+08
0.11254E+08
0.11467E+08
0.11386E+08
0.11512E+08
0.11544E+08
0.11193E+08
0.11217E+08
0.11134E+08
0.11184E+08
0.11219E+08
0.11091E+08
0.11159E+08
0.11055E+08
0.11174E+08
0.11121E+08
0.11186E+08
0.11103E+08
0.11532E+08
0.10790E+08
</weights>
</event>
<event>
      6  10001 -1.11453E+07  8.94427E-01 -1.00000E+00  1.77349E-01
      -4    -1     0     0     0   502  0.000000000E+00  0.000000000E+00  9.779198495E+01  9.779198495E+01  0.000000000E+00  0.00000E+00  9.000E+00
       4    -1     0     0   501     0  0.000000000E+00  0.000000000E+00 -9.768742190E-03  9.768742190E-03  0.000000000E+00  0.00000E+00  9.000E+00
      23     2     1     2     0     0  2.304944394E-01  1.389836872E-01  8.274039068E+01  8.275752027E+01  1.662066984E+00  0.00000E+00  9.000E+00
      11     1     3     3     0     0 -1.612458477E-01 -1.255959671E-01  7.611990563E+01  7.612018003E+01  5.110000000E-04  0.00000E+00  9.000E+00
     -11     1     3     3     0     0  3.917402872E-01  2.645796543E-01  6.620485055E+00  6.637340241E+00  5.110000000E-04  0.00000E+00  9.000E+00
      21     1     1     2   501   502 -2.304944394E-01 -1.389836872E-01  1.504182552E+01  1.504423342E+01  3.371747881E-07  0.00000E+00  9.000E+00
#rwgt            1           4  -997925.69499290024                3     4327085           0
<weights>
-.11145E+08
-.13239E+08
-.88969E+07
-.16102E+08
-.71290E+07
-.91639E+07
-.13909E+08
-.11169E+08
-.11123E+08
-.10814E+08
-.10800E+08
-.10958E+08
-.10999E+08
-.10830E+08
-.10811E+08
-.11228E+08
-.11218E+08
-.11476E+08
-.11519E+08
-.11506E+08
-.11451E+08
-.11518E+08
-.11535E+08
-.11428E+08
-.11331E+08
-.11292E+08
-.11366E+08
-.11449E+08
-.11383E+08
-.11497E+08
-.11530E+08
-.11188E+08
-.11217E+08
-.11136E+08
-.11181E+08
-.11206E+08
-.11104E+08
-.11149E+08
-.11067E+08
-.11171E+08
-.11124E+08
-.11187E+08
-.11102E+08
-.11519E+08
-.10802E+08
</weights>
</event>
<event>
      7  10001 -1.11453E+07  1.33840E+00 -1.00000E+00  4.61636E-01
       2    -1     0     0   501     0  0.000000000E+00  0.000000000E+00  2.635727516E+01  2.635727516E+01  0.000000000E+00  0.00000E+00  9.000E+00
      21    -1     0     0   511   501  0.000000000E+00  0.000000000E+00 -1.574679445E+01  1.574679445E+01  0.000000000E+00  0.00000E+00  9.000E+00
      23     2     1     2     0     0 -1.308605958E-01 -4.937621286E-02  1.950348060E+01  1.954478374E+01  1.262241439E+00  0.00000E+00  9.000E+00
      11     1     3     3     0     0  4.838498911E-01 -3.235953118E-01  7.578287409E+00  7.600609512E+00  5.110000000E-04  0.00000E+00  9.000E+00
     -11     1     3     3     0     0 -6.147104869E-01  2.742190989E-01  1.192519319E+01  1.194417423E+01  5.110000000E-04  0.00000E+00  9.000E+00
       2     1     1     2   502     0 -4.745532131E-01 -1.144271371E+00  6.748184012E+00  6.860943462E+00  0.000000000E+00  0.00000E+00  9.000E+00
      21     1     1     2   511   502  6.054138089E-01  1.193647584E+00 -1.564118391E+01  1.569834241E+01  3.769728732E-07  0.00000E+00  9.000E+00
#rwgt            1          24  -335979.54145159014                3     4327798           0
<weights>
-.11145E+08
0.15032E+07
-.23615E+08
-.21251E+08
-.52440E+07
0.57720E+07
-.36847E+08
-.11542E+08
-.10718E+08
-.11862E+08
-.12350E+08
-.11377E+08
-.11839E+08
-.12099E+08
-.12294E+08
-.11083E+08
-.10372E+08
-.99996E+07
-.96190E+07
-.96926E+07
-.10077E+08
-.97065E+07
-.98443E+07
-.94008E+07
-.11061E+08
-.10744E+08
-.88929E+07
-.98298E+07
-.10088E+08
-.95355E+07
-.97102E+07
-.10708E+08
-.11153E+08
-.11267E+08
-.10881E+08
-.11518E+08
-.10720E+08
-.94599E+07
-.13058E+08
-.10683E+08
-.11550E+08
-.10951E+08
-.11350E+08
-.99512E+07
-.12170E+08
</weights>
</event>
<event>
      7  10001  1.11453E+07  8.94427E-01 -1.00000E+00  6.07649E-01
      -1    -1     0     0     0   502  0.000000000E+00  0.000000000E+00  2.763580949E+00  2.763580949E+00  0.000000000E+00  0.00000E+00  9.000E+00
      21    -1     0     0   501   511  0.000000000E+00  0.000000000E+00 -3.271668404E+00  3.271668404E+00  0.000000000E+00  0.00000E+00  9.000E+00
      23     2     1     2     0     0  2.196232766E-01  2.555941892E-02  2.641903489E+00  2.835912419E+00  1.006904927E+00  0.00000E+00  9.000E+00
      11     1     3     3     0     0  3.604838481E-01  1.950190458E-01  2.572407547E+00  2.604853524E+00  5.110000000E-04  0.00000E+00  9.000E+00
     -11     1     3     3     0     0 -1.408605716E-01 -1.694596269E-01  6.949594264E-02  2.310588949E-01  5.110000000E-04  0.00000E+00  9.000E+00
      21     1     1     2   501   502 -3.483259415E-01 -1.368263000E-01 -2.480263847E+00  2.508338325E+00  8.940696716E-08  0.00000E+00  9.000E+00
      -1     1     1     2     0   511  1.287026649E-01  1.112668811E-01 -6.697270971E-01  6.909986103E-01  0.000000000E+00  0.00000E+00  9.000E+00
#rwgt            2         132   588340.58373137296                3     4372951           0
<weights>
0.11145E+08
0.11211E+08
0.10832E+08
0.13625E+08
0.86792E+07
0.91702E+07
0.13910E+08
0.11204E+08
0.11084E+08
0.10872E+08
0.10885E+08
0.10977E+08
0.11052E+08
0.10898E+08
0.10893E+08
0.11220E+08
0.11173E+08
0.11399E+08
0.11405E+08
0.11401E+08
0.11379E+08
0.11417E+08
0.11445E+08
0.11280E+08
0.11338E+08
0.11289E+08
0.11117E+08
0.11368E+08
0.11300E+08
0.11388E+08
0.11429E+08
0.11162E+08
0.11213E+08
0.11140E+08
0.11167E+08
0.11240E+08
0.11065E+08
0.11047E+08
0.11170E+08
0.11144E+08
0.11147E+08
0.11170E+08
0.11120E+08
0.11433E+08
0.10877E+08
</weights>
</event>
<event>
      6  10001 -1.11453E+07  8.94427E-01 -1.00000E+00  3.18544E-01
       4    -1     0     0   501     0  0.000000000E+00  0.000000000E+00  1.861325665E-02  1.861325665E-02  0.000000000E+00  0.00000E+00  9.000E+00
      21    -1     0     0   502   501  0.000000000E+00  0.000000000E+00 -1.544146626E+02  1.544146626E+02  0.000000000E+00  0.00000E+00  9.000E+00
      23     2     1     2     0     0 -4.028510345E-01  5.677458066E-01 -2.707941135E+01  2.711473466E+01  1.195697283E+00  0.00000E+00  9.000E+00
      11     1     3     3     0     0 -6.564195137E-01 -1.704004503E-02 -1.851364574E+01  1.852528693E+01  5.110000000E-04  0.00000E+00  9.000E+00
     -11     1     3     3     0     0  2.535684792E-01  5.847858516E-01 -8.565765617E+00  8.589447731E+00  5.110000000E-04  0.00000E+00  9.000E+00
       4     1     1     2   502     0  4.028510345E-01 -5.677458066E-01 -1.273166380E+02  1.273185412E+02  0.000000000E+00  0.00000E+00  9.000E+00
#rwgt            1          28  -529511.20649208431                3     4373107           0
<weights>
-.11145E+08
-.12164E+08
-.98428E+07
-.14784E+08
-.78866E+07
-.91702E+07
-.13910E+08
-.11100E+08
-.11188E+08
-.11328E+08
-.11293E+08
-.11127E+08
-.11350E+08
-.11345E+08
-.11325E+08
-.11117E+08
-.11059E+08
-.10975E+08
-.10895E+08
-.10892E+08
-.10993E+08
-.10955E+08
-.10879E+08
-.11097E+08
-.10928E+08
-.11011E+08
-.11181E+08
-.10995E+08
-.11001E+08
-.10962E+08
-.10939E+08
-.11133E+08
-.11096E+08
-.11126E+08
-.11155E+08
-.11141E+08
-.11142E+08
-.11131E+08
-.11213E+08
-.11033E+08
-.11250E+08
-.11081E+08
-.11213E+08
-.10948E+08
-.11317E+08
</weights>
</event>
<event>
      6  10001 -1.11453E+07  8.94427E-01 -1.00000E+00  1.85857E-01
       2    -1     0     0   501     0  0.000000000E+00  0.000000000E+00  2.606289743E+02  2.606289743E+02  0.000000000E+00  0.00000E+00  9.000E+00
      21    -1     0     0   502   501  0.000000000E+00  0.000000000E+00 -2.701826698E-03  2.701826698E-03  0.000000000E+00  0.00000E+00  9.000E+00
      23     2     1     2     0     0 -4.201462930E-01  9.902975860E-02  2.108586667E+02  2.108621984E+02  1.141515423E+00  0.00000E+00  9.000E+00
      11     1     3     3     0     0  1.563539861E-01 -4.125134856E-01  6.518127325E+01  6.518276610E+01  5.110000000E-04  0.00000E+00  9.000E+00
     -11     1     3     3     0     0 -5.765002791E-01  5.115432442E-01  1.456773935E+02  1.456794323E+02  5.110000000E-04  0.00000E+00  9.000E+00
       2     1     1     2   502     0  4.201462930E-01 -9.902975860E-02  4.976760579E+01  4.976947776E+01  0.000000000E+00  0.00000E+00  9.000E+00
#rwgt            1          24  -24570786.516799394                3     4374534           0
<weights>
-.11145E+08
-.12590E+08
-.95216E+07
-.15314E+08
-.76296E+07
-.91630E+07
-.13909E+08
-.11185E+08
-.11106E+08
-.10852E+08
-.10860E+08
-.10974E+08
-.11031E+08
-.10877E+08
-.10868E+08
-.11221E+08
-.11186E+08
-.11417E+08
-.11450E+08
-.11441E+08
-.11397E+08
-.11446E+08
-.11474E+08
-.11347E+08
-.11325E+08
-.11273E+08
-.11272E+08
-.11386E+08
-.11332E+08
-.11419E+08
-.11459E+08
-.11168E+08
-.11217E+08
-.11142E+08
-.11167E+08
-.11220E+08
-.11087E+08
-.11073E+08
-.11149E+08
-.11151E+08
-.11141E+08
-.11178E+08
-.11111E+08
-.11460E+08
-.10854E+08
</weights>
</event>
<event>
      6  10001  1.11453E+07  8.94427E-01 -1.00000E+00  6.00331E-01
      -4    -1     0     0     0   502  0.000000000E+00  0.000000000E+00  5.322577276E-02  5.322577276E-02  0.000000000E+00  0.00000E+00  9.000E+00
       4    -1     0     0   501     0  0.000000000E+00  0.000000000E+00 -3.647357050E+01  3.647357050E+01  0.000000000E+00  0.00000E+00  9.000E+00
      23     2     1     2     0     0  1.228858373E-01 -3.767290859E-01 -3.532091769E+01  3.535813655E+01  1.572758163E+00  0.00000E+00  9.000E+00
      11     1     3     3     0     0  4.796205017E-02 -9.137433208E-01 -1.375304389E+01  1.378344818E+01  5.110000000E-04  0.00000E+00  9.000E+00
     -11     1     3     3     0     0  7.492378718E-02  5.370142349E-01 -2.156787379E+01  2.157468837E+01  5.110000000E-04  0.00000E+00  9.000E+00
      21     1     1     2   501   502 -1.228858373E-01  3.767290859E-01 -1.099427042E+00  1.168659726E+00  2.980232239E-08  0.00000E+00  9.000E+00
#rwgt            1           4   155708.91226188574                3     4375522           0
<weights>
0.11145E+08
0.14108E+08
0.83396E+07
0.11959E+08
0.95784E+07
0.12438E+08
0.88930E+07
0.11333E+08
0.10959E+08
0.10601E+08
0.10757E+08
0.10828E+08
0.11009E+08
0.10700E+08
0.10744E+08
0.11228E+08
0.11211E+08
0.11514E+08
0.11603E+08
0.11594E+08
0.11492E+08
0.11534E+08
0.11661E+08
0.11242E+08
0.11608E+08
0.11523E+08
0.10983E+08
0.11496E+08
0.11289E+08
0.11430E+08
0.11562E+08
0.11077E+08
0.11343E+08
0.11194E+08
0.11108E+08
0.11434E+08
0.10891E+08
0.10571E+08
0.11639E+08
0.11112E+08
0.11178E+08
0.11151E+08
0.11140E+08
0.11627E+08
0.10685E+08
</weights>
</event>
<event>
      6  10001 -1.11453E+07  8.94427E-01 -1.00000E+00  2.77133E-01
      21    -1     0     0   502   501  0.000000000E+00  0.000000000E+00  2.113296242E-02  2.113296242E-02  0.000000000E+00  0.00000E+00  9.000E+00
       2    -1     0     0   501     0  0.000000000E+00  0.000000000E+00 -2.083917422E+02  2.083917422E+02  0.000000000E+00  0.00000E+00  9.000E+00
      23     2     1     2     0     0  7.756689787E-02 -3.623626538E-01 -2.064090746E+02  2.064166433E+02  1.728366672E+00  0.00000E+00  9.000E+00
      11     1     3     3     0     0  4.075045718E-01  2.023158678E-01 -1.605444327E+01  1.606088854E+01  5.110000000E-04  0.00000E+00  9.000E+00
     -11     1     3     3     0     0 -3.299376739E-01 -5.646785216E-01 -1.903546313E+02  1.903557548E+02  5.110000000E-04  0.00000E+00  9.000E+00
       2     1     1     2   502     0 -7.756689787E-02  3.623626538E-01 -1.961534670E+00  1.996231844E+00  0.000000000E+00  0.00000E+00  9.000E+00
#rwgt            1          17  -70816765.013613030                3     4376314           0
<weights>
-.11145E+08
-.12180E+08
-.99519E+07
-.14803E+08
-.79740E+07
-.91702E+07
-.13910E+08
-.11129E+08
-.11160E+08
-.11173E+08
-.11169E+08
-.11097E+08
-.11208E+08
-.11171E+08
-.11169E+08
-.11307E+08
-.10890E+08
-.11240E+08
-.10947E+08
-.10926E+08
-.11250E+08
-.11103E+08
-.11139E+08
-.11176E+08
-.11060E+08
-.11135E+08
-.11140E+08
-.11023E+08
-.11213E+08
-.11101E+08
-.11138E+08
-.11061E+08
-.11221E+08
-.11237E+08
-.11020E+08
-.11137E+08
-.11149E+08
-.11171E+08
-.11120E+08
-.11163E+08
-.11126E+08
-.11165E+08
-.11124E+08
-.11117E+08
-.11172E+08
</weights>
</event>
<event>
      6  10001 -1.11453E+07  8.94427E-01 -1.00000E+00  2.98150E-01
      21    -1     0     0   502   501  0.000000000E+00  0.000000000E+00  4.614043879E-03  4.614043879E-03  0.000000000E+00  0.00000E+00  9.000E+00
       2    -1     0     0   501     0  0.000000000E+00  0.000000000E+00 -9.130343691E+02  9.130343691E+02  0.000000000E+00  0.00000E+00  9.000E+00
      23     2     1     2     0     0  3.887113332E-01 -1.417490847E+00 -4.556171206E+02  4.556239872E+02  2.024037778E+00  0.00000E+00  9.000E+00
      11     1     3     3     0     0 -6.226870595E-01  8.864757191E-02 -1.654166883E+02  1.654178840E+02  5.110000000E-04  0.00000E+00  9.000E+00
     -11     1     3     3     0     0  1.011398393E+00 -1.506138419E+00 -2.902004324E+02  2.902061032E+02  5.110000000E-04  0.00000E+00  9.000E+00
       2     1     1     2   502     0 -3.887113332E-01  1.417490847E+00 -4.574126344E+02  4.574149959E+02  0.000000000E+00  0.00000E+00  9.000E+00
#rwgt            1          17  -21375549.232467216                3     4377034           0
<weights>
-.11145E+08
-.11335E+08
-.10818E+08
-.13777E+08
-.86680E+07
-.91702E+07
-.13910E+08
-.11137E+08
-.11153E+08
-.11163E+08
-.11135E+08
-.10908E+08
-.11409E+08
-.11152E+08
-.11144E+08
-.10853E+08
-.11566E+08
-.11602E+08
-.10531E+08
-.10429E+08
-.11668E+08
-.11127E+08
-.11161E+08
-.10903E+08
-.11364E+08
-.11655E+08
-.10843E+08
-.10510E+08
-.11899E+08
-.11045E+08
-.11215E+08
-.11180E+08
-.11107E+08
-.11808E+08
-.10368E+08
-.11041E+08
-.11242E+08
-.11113E+08
-.11191E+08
-.11339E+08
-.10975E+08
-.11113E+08
-.11179E+08
-.11140E+08
-.11151E+08
</weights>
</event>
<event>
      7  10001  1.11453E+07  1.58931E+00 -1.00000E+00  4.02706E-01
       1    -1     0     0   502     0  0.000000000E+00  0.000000000E+00  1.289966974E+00  1.289966974E+00  0.000000000E+00  0.00000E+00  9.000E+00
       2    -1     0     0   501     0  0.000000000E+00  0.000000000E+00 -2.455978577E+01  2.455978577E+01  0.000000000E+00  0.00000E+00  9.000E+00
      23     2     1     2     0     0  2.108909793E-01  8.710879726E-01 -2.130302802E+01  2.157381716E+01  3.287448076E+00  0.00000E+00  9.000E+00
      11     1     3     3     0     0  1.690809709E+00  6.060499456E-01 -8.855331661E+00  9.035653440E+00  5.110000000E-04  0.00000E+00  9.000E+00
     -11     1     3     3     0     0 -1.479918729E+00  2.650380271E-01 -1.244769636E+01  1.253816372E+01  5.110000000E-04  0.00000E+00  9.000E+00
       2     1     1     2   502     0  1.287029125E+00 -3.399041170E-01 -2.294975131E+00  2.653090581E+00  0.000000000E+00  0.00000E+00  9.000E+00
       1     1     1     2   501     0 -1.497920104E+00 -5.311838556E-01  3.281843562E-01  1.622845001E+00  0.000000000E+00  0.00000E+00  9.000E+00
#rwgt            1          17   451966.44663575105                3     4377255           0
<weights>
0.11145E+08
0.13350E+08
0.10760E+08
0.40594E+07
0.16256E+08
0.17251E+08
0.15045E+07
0.11214E+08
0.11071E+08
0.10754E+08
0.10792E+08
0.11123E+08
0.10730E+08
0.10774E+08
0.10786E+08
0.10900E+08
0.11695E+08
0.11242E+08
0.11928E+08
0.11951E+08
0.11206E+08
0.11546E+08
0.11576E+08
0.11422E+08
0.11401E+08
0.11387E+08
0.11057E+08
0.11840E+08
0.10856E+08
0.11545E+08
0.11482E+08
0.11205E+08
0.11203E+08
0.10981E+08
0.11417E+08
0.10882E+08
0.11426E+08
0.10975E+08
0.11167E+08
0.11099E+08
0.11173E+08
0.11334E+08
0.10944E+08
0.11546E+08
0.10777E+08
</weights>
</event>
<event>
      7  10001  1.11453E+07  1.25283E+00 -1.00000E+00  4.82478E-01
       2    -1     0     0   501     0  0.000000000E+00  0.000000000E+00  5.289639674E-02  5.289639674E-02  0.000000000E+00  0.00000E+00  9.000E+00
      21    -1     0     0   502   511  0.000000000E+00  0.000000000E+00 -1.659683456E+02  1.659683456E+02  0.000000000E+00  0.00000E+00  9.000E+00
      23     2     1     2     0     0 -1.060555416E-02 -2.273599808E-01 -9.096757160E+00  9.159687161E+00  1.047412535E+00  0.00000E+00  9.000E+00
      11     1     3     3     0     0 -4.847063805E-01 -1.733596422E-01 -2.961893357E+00  3.006294457E+00  5.110000000E-04  0.00000E+00  9.000E+00
     -11     1     3     3     0     0  4.741008263E-01 -5.400033863E-02 -6.134863803E+00  6.153392704E+00  5.110000000E-04  0.00000E+00  9.000E+00
       2     1     1     2   502     0  5.868026271E-02  1.479271573E+00 -2.985612899E+01  2.989281061E+01  0.000000000E+00  0.00000E+00  9.000E+00
      21     1     1     2   501   511 -4.807470855E-02 -1.251911593E+00 -1.269625631E+02  1.269687443E+02  2.336015456E-06  0.00000E+00  9.000E+00
#rwgt            1          24   925193.23512926942                3     4389752           0
<weights>
0.11145E+08
0.12293E+08
0.99168E+07
0.12422E+08
0.96122E+07
0.10881E+08
0.11283E+08
0.11286E+08
0.11004E+08
0.10711E+08
0.10816E+08
0.10893E+08
0.11020E+08
0.10779E+08
0.10809E+08
0.11234E+08
0.11180E+08
0.11463E+08
0.11522E+08
0.11515E+08
0.11440E+08
0.11477E+08
0.11581E+08
0.11230E+08
0.11524E+08
0.11431E+08
0.11008E+08
0.11426E+08
0.11291E+08
0.11400E+08
0.11502E+08
0.11106E+08
0.11293E+08
0.11169E+08
0.11133E+08
0.11360E+08
0.10956E+08
0.10740E+08
0.11454E+08
0.11124E+08
0.11165E+08
0.11165E+08
0.11125E+08
0.11544E+08
0.10767E+08
</weights>
</event>
<event>
      7  10001  1.11453E+07  3.49717E+00 -1.00000E+00  2.74349E-01
       2    -1     0     0   501     0  0.000000000E+00  0.000000000E+00  2.053107395E+00  2.053107395E+00  0.000000000E+00  0.00000E+00  9.000E+00
      21    -1     0     0   502   501  0.000000000E+00  0.000000000E+00 -3.398211508E+00  3.398211508E+00  0.000000000E+00  0.00000E+00  9.000E+00
      23     2     1     2     0     0 -1.341980748E-01 -4.521778504E-01 -2.869593915E+00  3.299382784E+00  1.558487597E+00  0.00000E+00  9.000E+00
      11     1     3     3     0     0 -6.475825496E-01 -5.385441855E-01 -2.557000563E+00  2.692145082E+00  5.110000000E-04  0.00000E+00  9.000E+00
     -11     1     3     3     0     0  5.133844748E-01  8.636633510E-02 -3.125933513E-01  6.072377024E-01  5.110000000E-04  0.00000E+00  9.000E+00
       2     1     1     2   511     0 -8.996934742E-02  3.567415924E-01 -1.942298190E-01  4.160339768E-01  0.000000000E+00  0.00000E+00  9.000E+00
      21     1     1     2   502   511  2.241674222E-01  9.543625800E-02  1.718719620E+00  1.735902142E+00  1.316034923E-07  0.00000E+00  9.000E+00
#rwgt            2         248   35130.298114770703                3     4439715           0
<weights>
0.11145E+08
0.11227E+08
0.10824E+08
0.13645E+08
0.86730E+07
0.91702E+07
0.13910E+08
0.11204E+08
0.11083E+08
0.10872E+08
0.10886E+08
0.10977E+08
0.11052E+08
0.10899E+08
0.10894E+08
0.11220E+08
0.11173E+08
0.11398E+08
0.11404E+08
0.11400E+08
0.11378E+08
0.11416E+08
0.11444E+08
0.11279E+08
0.11338E+08
0.11289E+08
0.11116E+08
0.11367E+08
0.11299E+08
0.11386E+08
0.11428E+08
0.11162E+08
0.11212E+08
0.11140E+08
0.11166E+08
0.11240E+08
0.11064E+08
0.11045E+08
0.11172E+08
0.11144E+08
0.11148E+08
0.11169E+08
0.11120E+08
0.11432E+08
0.10878E+08
</weights>
</event>
<event>
      7  10001  1.11453E+07  1.31813E+00 -1.00000E+00  4.66353E-01
       2    -1     0     0   501     0  0.000000000E+00  0.000000000E+00  2.345367622E+00  2.345367622E+00  0.000000000E+00  0.00000E+00  9.000E+00
      -2    -1     0     0     0   502  0.000000000E+00  0.000000000E+00 -7.339628852E+00  7.339628852E+00  0.000000000E+00  0.00000E+00  9.000E+00
      23     2     1     2     0     0 -4.776117698E-01  9.662197611E-02 -6.652393942E+00  7.675753969E+00  3.798079123E+00  0.00000E+00  9.000E+00
      11     1     3     3     0     0 -6.816904536E-01  1.897788195E+00 -3.512965956E+00  4.050584152E+00  5.110000000E-04  0.00000E+00  9.000E+00
     -11     1     3     3     0     0  2.040786838E-01 -1.801166219E+00 -3.139427986E+00  3.625169817E+00  5.110000000E-04  0.00000E+00  9.000E+00
       1     1     1     2   501     0 -3.802205652E-02 -4.820633663E-01  5.992729510E-01  7.700382041E-01  0.000000000E+00  0.00000E+00  9.000E+00
      -1     1     1     2     0   502  5.156338263E-01  3.854413902E-01  1.058859760E+00  1.239204301E+00  0.000000000E+00  0.00000E+00  9.000E+00
#rwgt            1          23   1081181.1348852539                3     4441011           0
<weights>
0.11145E+08
0.12101E+08
0.10106E+08
0.12768E+08
0.93692E+07
0.10481E+08
0.11898E+08
0.11122E+08
0.11162E+08
0.10836E+08
0.10827E+08
0.10984E+08
0.10973E+08
0.10851E+08
0.10837E+08
0.11142E+08
0.11323E+08
0.11475E+08
0.11442E+08
0.11424E+08
0.11461E+08
0.11481E+08
0.11509E+08
0.11361E+08
0.11332E+08
0.11425E+08
0.11019E+08
0.11471E+08
0.11245E+08
0.11460E+08
0.11480E+08
0.11125E+08
0.11268E+08
0.11179E+08
0.11137E+08
0.10993E+08
0.11318E+08
0.11069E+08
0.11111E+08
0.11160E+08
0.11127E+08
0.11236E+08
0.11049E+08
0.11486E+08
0.10832E+08
</weights>
</event>
<event>
      6  10001 -1.11453E+07  8.94427E-01 -1.00000E+00  6.05607E-01
       5    -1     0     0   501     0  0.000000000E+00  0.000000000E+00  1.046510265E+01  1.046510265E+01  0.000000000E+00  0.00000E+00  9.000E+00
      21    -1     0     0   502   501  0.000000000E+00  0.000000000E+00 -9.570725469E-01  9.570725469E-01  0.000000000E+00  0.00000E+00  9.000E+00
      23     2     1     2     0     0 -1.783003226E-01  2.865925445E-01  1.014361848E+01  1.070252329E+01  3.396628117E+00  0.00000E+00  9.000E+00
      11     1     3     3     0     0 -1.114875590E+00 -5.647355366E-01  1.437155745E+00  1.904544750E+00  5.110000000E-04  0.00000E+00  9.000E+00
     -11     1     3     3     0     0  9.365752678E-01  8.513280812E-01  8.706462734E+00  8.797978537E+00  5.110000000E-04  0.00000E+00  9.000E+00
       5     1     1     2   502     0  1.783003226E-01 -2.865925445E-01 -6.355883746E-01  7.196519114E-01  0.000000000E+00  0.00000E+00  9.000E+00
#rwgt            1          30  -136537.19382702318                3     4444799           0
<weights>
-.11145E+08
-.18885E+07
-.19357E+08
-.12014E+08
-.10430E+08
-.31630E+07
-.23131E+08
-.11237E+08
-.11054E+08
-.11123E+08
-.11249E+08
-.11087E+08
-.11236E+08
-.11198E+08
-.11241E+08
-.11172E+08
-.10991E+08
-.11033E+08
-.11012E+08
-.11012E+08
-.11042E+08
-.10990E+08
-.11051E+08
-.10925E+08
-.11220E+08
-.11114E+08
-.10949E+08
-.10974E+08
-.11018E+08
-.10928E+08
-.11001E+08
-.11046E+08
-.11201E+08
-.11177E+08
-.11092E+08
-.11266E+08
-.11026E+08
-.10660E+08
-.11621E+08
-.11030E+08
-.11246E+08
-.11123E+08
-.11169E+08
-.11063E+08
-.11202E+08
</weights>
</event>
<event>
      6  10001 -1.11453E+07  8.94427E-01 -1.00000E+00  3.30567E-01
      21    -1     0     0   502   501  0.000000000E+00  0.000000000E+00  1.215442518E-02  1.215442518E-02  0.000000000E+00  0.00000E+00  9.000E+00
       2    -1     0     0   501     0  0.000000000E+00  0.000000000E+00 -3.150842334E+02  3.150842334E+02  0.000000000E+00  0.00000E+00  9.000E+00
      23     2     1     2     0     0  1.002259555E+00 -1.195759136E+00 -1.453732348E+02  1.453903712E+02  1.596332566E+00  0.00000E+00  9.000E+00
      11     1     3     3     0     0 -1.780864098E-01  2.014162283E-01 -4.270151275E+01  4.270235912E+01  5.110000000E-04  0.00000E+00  9.000E+00
     -11     1     3     3     0     0  1.180345964E+00 -1.397175364E+00 -1.026717220E+02  1.026880120E+02  5.110000000E-04  0.00000E+00  9.000E+00
       2     1     1     2   502     0 -1.002259555E+00  1.195759136E+00 -1.696988442E+02  1.697060166E+02  0.000000000E+00  0.00000E+00  9.000E+00
#rwgt            1          17  -12291415.776715148                3     4447215           0
<weights>
-.11145E+08
-.13134E+08
-.87426E+07
-.15962E+08
-.70050E+07
-.91702E+07
-.13910E+08
-.11127E+08
-.11163E+08
-.11170E+08
-.11161E+08
-.11046E+08
-.11263E+08
-.11164E+08
-.11161E+08
-.11336E+08
-.10857E+08
-.11350E+08
-.10821E+08
-.10780E+08
-.11372E+08
-.11104E+08
-.11158E+08
-.11121E+08
-.11121E+08
-.11217E+08
-.11094E+08
-.10899E+08
-.11379E+08
-.11086E+08
-.11163E+08
-.11029E+08
-.11257E+08
-.11355E+08
-.10876E+08
-.11123E+08
-.11163E+08
-.11165E+08
-.11127E+08
-.11204E+08
-.11091E+08
-.11149E+08
-.11141E+08
-.11124E+08
-.11166E+08
</weights>
</event>
<event>
      6  10001 -1.11453E+07  8.94427E-01 -1.00000E+00  5.76119E-01
      21    -1     0     0   502   501  0.000000000E+00  0.000000000E+00  1.913718876E-02  1.913718876E-02  0.000000000E+00  0.00000E+00  9.000E+00
      -2    -1     0     0     0   502  0.000000000E+00  0.000000000E+00 -1.336670312E+02  1.336670312E+02  0.000000000E+00  0.00000E+00  9.000E+00
      23     2     1     2     0     0 -5.122517724E-01  1.157234620E-02 -9.915322245E+01  9.918769158E+01  2.564001473E+00  0.00000E+00  9.000E+00
      11     1     3     3     0     0  5.981700627E-01  4.293055297E-01 -7.640903737E+01  7.641258471E+01  5.110000000E-04  0.00000E+00  9.000E+00
     -11     1     3     3     0     0 -1.110421835E+00 -4.177331835E-01 -2.274418508E+01  2.277510687E+01  5.110000000E-04  0.00000E+00  9.000E+00
      -2     1     1     2     0   501  5.122517724E-01 -1.157234620E-02 -3.449467161E+01  3.449847685E+01  0.000000000E+00  0.00000E+00  9.000E+00
#rwgt            1          14  -1819470.2456441747                3     4448362           0
<weights>
-.11145E+08
-.12254E+08
-.98643E+07
-.14893E+08
-.79038E+07
-.91702E+07
-.13910E+08
-.11127E+08
-.11160E+08
-.11233E+08
-.11244E+08
-.11114E+08
-.11200E+08
-.11259E+08
-.11254E+08
-.11045E+08
-.11189E+08
-.11094E+08
-.10937E+08
-.10912E+08
-.11115E+08
-.11022E+08
-.11003E+08
-.11132E+08
-.11014E+08
-.11066E+08
-.11149E+08
-.11038E+08
-.10974E+08
-.11027E+08
-.11031E+08
-.11171E+08
-.11078E+08
-.11297E+08
-.10995E+08
-.11091E+08
-.11176E+08
-.11165E+08
-.11146E+08
-.11102E+08
-.11170E+08
-.11286E+08
-.10994E+08
-.11025E+08
-.11249E+08
</weights>
</event>
<event>
      6  10001 -1.11453E+07  8.94427E-01 -1.00000E+00  3.60717E-01
      21    -1     0     0   502   501  0.000000000E+00  0.000000000E+00  9.404659797E-03  9.404659797E-03  0.000000000E+00  0.00000E+00  9.000E+00
       2    -1     0     0   501     0  0.000000000E+00  0.000000000E+00 -1.741745786E+02  1.741745786E+02  0.000000000E+00  0.00000E+00  9.000E+00
      23     2     1     2     0     0  2.122399244E-01  5.072230970E-01 -1.628139487E+02  1.628194492E+02  1.220167809E+00  0.00000E+00  9.000E+00
      11     1     3     3     0     0 -2.847425637E-01  6.304286037E-02 -1.051962836E+01  1.052367017E+01  5.110000000E-04  0.00000E+00  9.000E+00
     -11     1     3     3     0     0  4.969824881E-01  4.441802366E-01 -1.522943203E+02  1.522957790E+02  5.110000000E-04  0.00000E+00  9.000E+00
       2     1     1     2   502     0 -2.122399244E-01 -5.072230970E-01 -1.135122519E+01  1.136453406E+01  0.000000000E+00  0.00000E+00  9.000E+00
#rwgt            1          17  -14211150.297378536                3     4450042           0
<weights>
-.11145E+08
-.11988E+08
-.10156E+08
-.14570E+08
-.81378E+07
-.91702E+07
-.13910E+08
-.11132E+08
-.11157E+08
-.11172E+08
-.11171E+08
-.11119E+08
-.11182E+08
-.11173E+08
-.11172E+08
-.11279E+08
-.10924E+08
-.11191E+08
-.11005E+08
-.10993E+08
-.11197E+08
-.11104E+08
-.11129E+08
-.11196E+08
-.11039E+08
-.11106E+08
-.11157E+08
-.11077E+08
-.11142E+08
-.11108E+08
-.11127E+08
-.11079E+08
-.11201E+08
-.11190E+08
-.11079E+08
-.11140E+08
-.11146E+08
-.11168E+08
-.11124E+08
-.11145E+08
-.11142E+08
-.11173E+08
-.11115E+08
-.11114E+08
-.11173E+08
</weights>
</event>
<event>
      6  10001 -1.11453E+07  8.94427E-01 -1.00000E+00  2.49790E-01
      -5    -1     0     0     0   502  0.000000000E+00  0.000000000E+00  6.902457658E-01  6.902457658E-01  0.000000000E+00  0.00000E+00  9.000E+00
      21    -1     0     0   502   501  0.000000000E+00  0.000000000E+00 -1.350477321E+00  1.350477321E+00  0.000000000E+00  0.00000E+00  9.000E+00
      23     2     1     2     0     0 -2.585435351E-01 -2.855643228E-01 -2.779337978E-01  1.498004635E+00  1.420696642E+00  0.00000E+00  9.000E+00
      11     1     3     3     0     0 -7.915816777E-01  2.115040357E-02  6.383882981E-02  7.944334770E-01  5.110000000E-04  0.00000E+00  9.000E+00
     -11     1     3     3     0     0  5.330381427E-01 -3.067147263E-01 -3.417726276E-01  7.035711584E-01  5.110000000E-04  0.00000E+00  9.000E+00
      -5     1     1     2     0   501  2.585435351E-01  2.855643228E-01 -3.822977571E-01  5.427184510E-01  0.000000000E+00  0.00000E+00  9.000E+00
#rwgt            1           1  -157771.49269790674                3     4450366           0
<weights>
-.11145E+08
-.99256E+07
-.11365E+08
-.16897E+08
-.67962E+07
-.63059E+07
-.18307E+08
-.11211E+08
-.11080E+08
-.11076E+08
-.11159E+08
-.11074E+08
-.11184E+08
-.11130E+08
-.11156E+08
-.11176E+08
-.11050E+08
-.11123E+08
-.11113E+08
-.11112E+08
-.11125E+08
-.11102E+08
-.11141E+08
-.11047E+08
-.11220E+08
-.11138E+08
-.11058E+08
-.11078E+08
-.11100E+08
-.11056E+08
-.11110E+08
-.11086E+08
-.11194E+08
-.11167E+08
-.11113E+08
-.11235E+08
-.11061E+08
-.10821E+08
-.11467E+08
-.11069E+08
-.11212E+08
-.11136E+08
-.11155E+08
-.11151E+08
-.11127E+08
</weights>
</event>
<event>
      6  10001  1.11453E+07  8.94427E-01 -1.00000E+00  6.07298E-01
      21    -1     0     0   502   501  0.000000000E+00  0.000000000E+00  3.091871142E-02  3.091871142E-02  0.000000000E+00  0.00000E+00  9.000E+00
       2    -1     0     0   501     0  0.000000000E+00  0.000000000E+00 -6.490407559E+02  6.490407559E+02  0.000000000E+00  0.00000E+00  9.000E+00
      23     2     1     2     0     0 -2.657129112E-01 -4.240772686E-01 -6.469582989E+02  6.469599799E+02  1.387347053E+00  0.00000E+00  9.000E+00
      11     1     3     3     0     0 -4.899149267E-01  1.597347906E-01 -5.092839794E+02  5.092842401E+02  5.110000000E-04  0.00000E+00  9.000E+00
     -11     1     3     3     0     0  2.242020155E-01 -5.838120592E-01 -1.376743195E+02  1.376757399E+02  5.110000000E-04  0.00000E+00  9.000E+00
       2     1     1     2   502     0  2.657129112E-01  4.240772686E-01 -2.051538313E+00  2.111694658E+00  0.000000000E+00  0.00000E+00  9.000E+00
#rwgt            1          17   93762202.439726859                3     4452403           0
<weights>
0.11145E+08
0.12963E+08
0.88589E+07
0.13555E+08
0.87278E+07
0.10747E+08
0.11490E+08
0.11133E+08
0.11157E+08
0.11158E+08
0.11145E+08
0.10956E+08
0.11354E+08
0.11152E+08
0.11147E+08
0.11258E+08
0.10965E+08
0.11529E+08
0.10619E+08
0.10543E+08
0.11575E+08
0.11112E+08
0.11178E+08
0.11006E+08
0.11252E+08
0.11403E+08
0.10985E+08
0.10679E+08
0.11673E+08
0.11059E+08
0.11203E+08
0.11021E+08
0.11269E+08
0.11592E+08
0.10603E+08
0.11087E+08
0.11199E+08
0.11131E+08
0.11166E+08
0.11277E+08
0.11028E+08
0.11129E+08
0.11162E+08
0.11138E+08
0.11152E+08
</weights>
</event>
<event>
      7  10001  1.11453E+07  1.51214E+00 -1.00000E+00  4.15164E-01
      -3    -1     0     0     0   502  0.000000000E+00  0.000000000E+00  2.725579009E+00  2.725579009E+00  0.000000000E+00  0.00000E+00  9.000E+00
      21    -1     0     0   501   511  0.000000000E+00  0.000000000E+00 -1.004371529E+01  1.004371529E+01  0.000000000E+00  0.00000E+00  9.000E+00
      23     2     1     2     0     0  3.581487789E-01  1.429163257E-01  2.235363831E+00  2.674567261E+00  1.416955524E+00  0.00000E+00  9.000E+00
      11     1     3     3     0     0  2.443713702E-01 -4.955459451E-01  1.825738878E+00  1.907513005E+00  5.110000000E-04  0.00000E+00  9.000E+00
     -11     1     3     3     0     0  1.137774086E-01  6.384622708E-01  4.096249521E-01  7.670542566E-01  5.110000000E-04  0.00000E+00  9.000E+00
      21     1     1     2   501   502  1.143852202E+00 -3.177211856E-01 -1.564751056E+00  1.964125881E+00  6.989264130E-08  0.00000E+00  9.000E+00
      -3     1     1     2     0   511 -1.502000981E+00  1.748048599E-01 -7.988749058E+00  8.130601158E+00  0.000000000E+00  0.00000E+00  9.000E+00
#rwgt            1           6   144780.77602080008                3     4482090           0
<weights>
0.11145E+08
0.12393E+08
0.98188E+07
0.13058E+08
0.90372E+07
0.10456E+08
0.11936E+08
0.11194E+08
0.11092E+08
0.10817E+08
0.10821E+08
0.11005E+08
0.10957E+08
0.10838E+08
0.10826E+08
0.11250E+08
0.11127E+08
0.11321E+08
0.11772E+08
0.11716E+08
0.11312E+08
0.11487E+08
0.11546E+08
0.11871E+08
0.11058E+08
0.10804E+08
0.12920E+08
0.11279E+08
0.11606E+08
0.11463E+08
0.11530E+08
0.11210E+08
0.11191E+08
0.11144E+08
0.11172E+08
0.11237E+08
0.11070E+08
0.11139E+08
0.11067E+08
0.11174E+08
0.11120E+08
0.11195E+08
0.11093E+08
0.11506E+08
0.10814E+08
</weights>
</event>
<event>
      7  10001  1.11453E+07  5.43250E+00 -1.00000E+00  2.31049E-01
      -4    -1     0     0     0   502  0.000000000E+00  0.000000000E+00  4.736628899E-01  4.736628899E-01  0.000000000E+00  0.00000E+00  9.000E+00
      21    -1     0     0   502   501  0.000000000E+00  0.000000000E+00 -4.601076613E+01  4.601076613E+01  0.000000000E+00  0.00000E+00  9.000E+00
      23     2     1     2     0     0 -1.545032644E-01  2.173208726E+00 -1.924961505E+01  1.946469263E+01  1.892054969E+00  0.00000E+00  9.000E+00
      11     1     3     3     0     0 -7.336436151E-01  1.998523651E+00 -1.708547274E+01  1.721759881E+01  5.110000000E-04  0.00000E+00  9.000E+00
     -11     1     3     3     0     0  5.791403507E-01  1.746850752E-01 -2.164142313E+00  2.247093820E+00  5.110000000E-04  0.00000E+00  9.000E+00
      -4     1     1     2     0   511 -1.212564232E+00 -7.743970104E-01 -1.249837508E+00  1.905806009E+00  0.000000000E+00  0.00000E+00  9.000E+00
      21     1     1     2   511   501  1.367067496E+00 -1.398811715E+00 -2.503765068E+01  2.511393038E+01  3.371747881E-07  0.00000E+00  9.000E+00
#rwgt            2          41   572831.29342443484                3     4489924           0
<weights>
0.11145E+08
0.10770E+08
0.11324E+08
0.13090E+08
0.90731E+07
0.91702E+07
0.13910E+08
0.11212E+08
0.11080E+08
0.10996E+08
0.11062E+08
0.11020E+08
0.11158E+08
0.11051E+08
0.11064E+08
0.11184E+08
0.11101E+08
0.11219E+08
0.11208E+08
0.11203E+08
0.11217E+08
0.11212E+08
0.11236E+08
0.11134E+08
0.11264E+08
0.11231E+08
0.11077E+08
0.11194E+08
0.11147E+08
0.11167E+08
0.11219E+08
0.11103E+08
0.11211E+08
0.11158E+08
0.11132E+08
0.11262E+08
0.11039E+08
0.10878E+08
0.11421E+08
0.11085E+08
0.11201E+08
0.11135E+08
0.11156E+08
0.11252E+08
0.11035E+08
</weights>
</event>
<event>
      6  10001 -1.11453E+07  8.94427E-01 -1.00000E+00  4.70564E-01
       1    -1     0     0   501     0  0.000000000E+00  0.000000000E+00  3.425345545E+02  3.425345545E+02  0.000000000E+00  0.00000E+00  9.000E+00
      21    -1     0     0   502   501  0.000000000E+00  0.000000000E+00 -7.082121056E-03  7.082121056E-03  0.000000000E+00  0.00000E+00  9.000E+00
      23     2     1     2     0     0 -1.201899354E-02 -8.259520086E-01  2.307276724E+02  2.307387851E+02  2.108501852E+00  0.00000E+00  9.000E+00
      11     1     3     3     0     0 -2.360280533E-01 -1.386076366E+00  2.014057112E+02  2.014106190E+02  5.110000000E-04  0.00000E+00  9.000E+00
     -11     1     3     3     0     0  2.240090598E-01  5.601243570E-01  2.932196119E+01  2.932816611E+01  5.110000000E-04  0.00000E+00  9.000E+00
       1     1     1     2   502     0  1.201899354E-02  8.259520086E-01  1.117997999E+02  1.118028515E+02  0.000000000E+00  0.00000E+00  9.000E+00
#rwgt            1          22  -1142075.4327340417                3     4490308           0
<weights>
-.11145E+08
-.12005E+08
-.10065E+08
-.14604E+08
-.80650E+07
-.91625E+07
-.13909E+08
-.11172E+08
-.11120E+08
-.10824E+08
-.10814E+08
-.10962E+08
-.11007E+08
-.10842E+08
-.10825E+08
-.11226E+08
-.11210E+08
-.11461E+08
-.11503E+08
-.11491E+08
-.11438E+08
-.11500E+08
-.11520E+08
-.11411E+08
-.11328E+08
-.11287E+08
-.11352E+08
-.11434E+08
-.11371E+08
-.11478E+08
-.11513E+08
-.11183E+08
-.11217E+08
-.11138E+08
-.11177E+08
-.11209E+08
-.11101E+08
-.11131E+08
-.11085E+08
-.11166E+08
-.11128E+08
-.11185E+08
-.11104E+08
-.11505E+08
-.10815E+08
</weights>
</event>
<event>
      6  10001 -1.11453E+07  8.94427E-01 -1.00000E+00  5.55131E-01
       2    -1     0     0   501     0  0.000000000E+00  0.000000000E+00  8.646154308E+02  8.646154308E+02  0.000000000E+00  0.00000E+00  9.000E+00
      21    -1     0     0   502   501  0.000000000E+00  0.000000000E+00 -4.692278877E-03  4.692278877E-03  0.000000000E+00  0.00000E+00  9.000E+00
      23     2     1     2     0     0 -1.154987005E-01 -4.695056326E-01  8.415636252E+02  8.415679386E+02  2.650715468E+00  0.00000E+00  9.000E+00
      11     1     3     3     0     0  7.703904279E-01 -3.927232996E-01  7.377079814E+02  7.377084882E+02  5.110000000E-04  0.00000E+00  9.000E+00
     -11     1     3     3     0     0 -8.858891284E-01 -7.678233292E-02  1.038556437E+02  1.038594503E+02  5.110000000E-04  0.00000E+00  9.000E+00
       2     1     1     2   502     0  1.154987005E-01  4.695056326E-01  2.304711334E+01  2.305218447E+01  0.000000000E+00  0.00000E+00  9.000E+00
#rwgt            1          24  -33888087.487686768                3     4490514           0
<weights>
-.11145E+08
-.11675E+08
-.10373E+08
-.14205E+08
-.83117E+07
-.91607E+07
-.13909E+08
-.11171E+08
-.11120E+08
-.10824E+08
-.10814E+08
-.10962E+08
-.11007E+08
-.10842E+08
-.10825E+08
-.11226E+08
-.11211E+08
-.11461E+08
-.11503E+08
-.11491E+08
-.11438E+08
-.11500E+08
-.11520E+08
-.11411E+08
-.11328E+08
-.11287E+08
-.11355E+08
-.11434E+08
-.11371E+08
-.11478E+08
-.11513E+08
-.11183E+08
-.11217E+08
-.11138E+08
-.11178E+08
-.11208E+08
-.11101E+08
-.11131E+08
-.11085E+08
-.11166E+08
-.11128E+08
-.11185E+08
-.11104E+08
-.11505E+08
-.10815E+08
</weights>
</event>
<event>
      7  10001  1.11453E+07  8.94427E-01 -1.00000E+00  6.07649E-01
      21    -1     0     0   511   502  0.000000000E+00  0.000000000E+00  6.460084184E-01  6.460084184E-01  0.000000000E+00  0.00000E+00  9.000E+00
       2    -1     0     0   501     0  0.000000000E+00  0.000000000E+00 -7.775207668E+01  7.775207668E+01  0.000000000E+00  0.00000E+00  9.000E+00
      23     2     1     2     0     0 -2.614129386E-01 -5.221396459E-04 -7.583178333E+01  7.584790626E+01  1.541811779E+00  0.00000E+00  9.000E+00
      11     1     3     3     0     0 -7.633087910E-01  4.527109183E-01 -4.346200348E+01  4.347106319E+01  5.110000000E-04  0.00000E+00  9.000E+00
     -11     1     3     3     0     0  5.018958524E-01 -4.532330579E-01 -3.236977985E+01  3.237684308E+01  5.110000000E-04  0.00000E+00  9.000E+00
      21     1     1     2   501   502  5.961947799E-03 -4.997146813E-01  4.892422363E-01  6.993627623E-01  7.967593900E-07  0.00000E+00  9.000E+00
       2     1     1     2   511     0  2.554509908E-01  5.002368209E-01 -1.763527164E+00  1.850816075E+00  0.000000000E+00  0.00000E+00  9.000E+00
#rwgt            2         190   3256754.4318444896                3     4494628           0
<weights>
0.11145E+08
0.10744E+08
0.11415E+08
0.13058E+08
0.91461E+07
0.91702E+07
0.13910E+08
0.11165E+08
0.11126E+08
0.11129E+08
0.11154E+08
0.11162E+08
0.11097E+08
0.11152E+08
0.11154E+08
0.11151E+08
0.11103E+08
0.11071E+08
0.11205E+08
0.11214E+08
0.11064E+08
0.11132E+08
0.11125E+08
0.11234E+08
0.11039E+08
0.11072E+08
0.11176E+08
0.11245E+08
0.10953E+08
0.11139E+08
0.11118E+08
0.11133E+08
0.11150E+08
0.11079E+08
0.11229E+08
0.11131E+08
0.11155E+08
0.11093E+08
0.11209E+08
0.11090E+08
0.11189E+08
0.11198E+08
0.11089E+08
0.11139E+08
0.11146E+08
</weights>
</event>
<event>
      7  10001 -1.11453E+07  1.10667E+00 -1.00000E+00  5.24856E-01
      21    -1     0     0   511   501  0.000000000E+00  0.000000000E+00  2.244236342E+01  2.244236342E+01  0.000000000E+00  0.00000E+00  9.000E+00
      -3    -1     0     0     0   502  0.000000000E+00  0.000000000E+00 -1.570757842E+01  1.570757842E+01  0.000000000E+00  0.00000E+00  9.000E+00
      23     2     1     2     0     0 -5.640727720E-01  5.632518882E-01 -1.387337074E+01  1.411539950E+01  2.477631247E+00  0.00000E+00  9.000E+00
      11     1     3     3     0     0 -8.609693692E-01 -2.940554028E-01 -1.199442610E+01  1.202888168E+01  5.110000000E-04  0.00000E+00  9.000E+00
     -11     1     3     3     0     0  2.968965972E-01  8.573072911E-01 -1.878944644E+00  2.086517821E+00  5.110000000E-04  0.00000E+00  9.000E+00
      -3     1     1     2     0   501  3.598711574E-01  5.244199018E-01 -1.639931263E+00  1.758947990E+00  0.000000000E+00  0.00000E+00  9.000E+00
      21     1     1     2   511   502  2.042016146E-01 -1.087671790E+00  2.224808701E+01  2.227559435E+01  0.000000000E+00  0.00000E+00  9.000E+00
#rwgt            1          13  -159728.16935289546                3     4495240           0
<weights>
-.11145E+08
-.92023E+07
-.12054E+08
-.18480E+08
-.53896E+07
-.44745E+07
-.21118E+08
-.11198E+08
-.11094E+08
-.11073E+08
-.11139E+08
-.11039E+08
-.11215E+08
-.11132E+08
-.11140E+08
-.11277E+08
-.10991E+08
-.11311E+08
-.10867E+08
-.10877E+08
-.11300E+08
-.11134E+08
-.11119E+08
-.10681E+08
-.11567E+08
-.11649E+08
-.10073E+08
-.11166E+08
-.10999E+08
-.11089E+08
-.11120E+08
-.11086E+08
-.11201E+08
-.11157E+08
-.11128E+08
-.11240E+08
-.11058E+08
-.10870E+08
-.11461E+08
-.11061E+08
-.11222E+08
-.11124E+08
-.11169E+08
-.11163E+08
-.11114E+08
</weights>
</event>
<event>
      7  10001  1.11453E+07  8.94427E-01 -1.00000E+00  6.07649E-01
       2    -1     0     0   502     0  0.000000000E+00  0.000000000E+00  8.177976271E+02  8.177976271E+02  0.000000000E+00  0.00000E+00  9.000E+00
      -5    -1     0     0     0   502  0.000000000E+00  0.000000000E+00 -4.456504988E-02  4.456504988E-02  0.000000000E+00  0.00000E+00  9.000E+00
      23     2     1     2     0     0  1.235244591E-01  1.618431102E-01  4.725921551E+02  4.725936308E+02  1.163336627E+00  0.00000E+00  9.000E+00
      11     1     3     3     0     0 -3.647216961E-01  3.951524120E-01  1.395476640E+02  1.395487000E+02  5.110000000E-04  0.00000E+00  9.000E+00
     -11     1     3     3     0     0  4.882461553E-01 -2.333093018E-01  3.330444912E+02  3.330449308E+02  5.110000000E-04  0.00000E+00  9.000E+00
      -5     1     1     2     0   501 -6.887720475E-02 -3.758990516E-01  7.899502707E-01  8.775338150E-01  0.000000000E+00  0.00000E+00  9.000E+00
       2     1     1     2   501     0 -5.464725436E-02  2.140559414E-01  3.443709566E+02  3.443710275E+02  0.000000000E+00  0.00000E+00  9.000E+00
#rwgt            2         231   10616580.610398589                3     4511418           0
<weights>
0.11145E+08
0.10916E+08
0.11037E+08
0.13267E+08
0.88436E+07
0.91702E+07
0.13910E+08
0.11172E+08
0.11119E+08
0.10808E+08
0.10792E+08
0.10955E+08
0.10996E+08
0.10823E+08
0.10803E+08
0.11229E+08
0.11220E+08
0.11484E+08
0.11524E+08
0.11513E+08
0.11459E+08
0.11526E+08
0.11543E+08
0.11428E+08
0.11336E+08
0.11297E+08
0.11342E+08
0.11458E+08
0.11388E+08
0.11506E+08
0.11539E+08
0.11190E+08
0.11218E+08
0.11136E+08
0.11182E+08
0.11208E+08
0.11102E+08
0.11155E+08
0.11060E+08
0.11173E+08
0.11122E+08
0.11188E+08
0.11101E+08
0.11527E+08
0.10795E+08
</weights>
</event>
<event>
      7  10001  1.11453E+07  1.88388E+00 -1.00000E+00  3.65437E-01
      -2    -1     0     0     0   502  0.000000000E+00  0.000000000E+00  1.074673273E+02  1.074673273E+02  0.000000000E+00  0.00000E+00  9.000E+00
      21    -1     0     0   502   511  0.000000000E+00  0.000000000E+00 -3.049892463E+01  3.049892463E+01  0.000000000E+00  0.00000E+00  9.000E+00
      23     2     1     2     0     0 -1.172788270E-01  1.270358049E+00  1.028189044E+02  1.029209057E+02  4.399792458E+00  0.00000E+00  9.000E+00
      11     1     3     3     0     0  3.465920039E-01 -1.568504727E+00  2.727997794E+01  2.732723056E+01  5.110000000E-04  0.00000E+00  9.000E+00
     -11     1     3     3     0     0 -4.638708310E-01  2.838862777E+00  7.553892645E+01  7.559367519E+01  5.110000000E-04  0.00000E+00  9.000E+00
      -2     1     1     2     0   501  1.384309411E+00  1.237881362E-01  4.462469252E+00  4.673892154E+00  0.000000000E+00  0.00000E+00  9.000E+00
      21     1     1     2   501   511 -1.267030584E+00 -1.394146186E+00 -3.031297098E+01  3.037145403E+01  3.371747881E-07  0.00000E+00  9.000E+00
#rwgt            1           7   972141.18578814424                3     4512144           0
<weights>
0.11145E+08
0.13231E+08
0.88262E+07
0.12373E+08
0.95809E+07
0.11724E+08
0.99895E+07
0.11150E+08
0.11141E+08
0.10719E+08
0.10663E+08
0.10919E+08
0.10926E+08
0.10716E+08
0.10680E+08
0.11244E+08
0.11287E+08
0.11608E+08
0.11678E+08
0.11662E+08
0.11574E+08
0.11677E+08
0.11686E+08
0.11580E+08
0.11367E+08
0.11345E+08
0.11487E+08
0.11592E+08
0.11495E+08
0.11668E+08
0.11690E+08
0.11230E+08
0.11224E+08
0.11126E+08
0.11206E+08
0.11188E+08
0.11128E+08
0.11288E+08
0.10901E+08
0.11213E+08
0.11087E+08
0.11207E+08
0.11081E+08
0.11659E+08
0.10680E+08
</weights>
</event>
<event>
      6  10001 -1.11453E+07  8.94427E-01 -1.00000E+00  1.55505E-01
       2    -1     0     0   501     0  0.000000000E+00  0.000000000E+00  1.309741906E+02  1.309741906E+02  0.000000000E+00  0.00000E+00  9.000E+00
      21    -1     0     0   502   501  0.000000000E+00  0.000000000E+00 -9.909530469E-03  9.909530469E-03  0.000000000E+00  0.00000E+00  9.000E+00
      23     2     1     2     0     0 -4.966075110E-01  1.161556777E-02  1.003294885E+02  1.003452805E+02  1.709472878E+00  0.00000E+00  9.000E+00
      11     1     3     3     0     0  1.600833373E-01  7.510982934E-01  5.203557676E+01  5.204124349E+01  5.110000000E-04  0.00000E+00  9.000E+00
     -11     1     3     3     0     0 -6.566908483E-01 -7.394827256E-01  4.829391177E+01  4.830403701E+01  5.110000000E-04  0.00000E+00  9.000E+00
       2     1     1     2   502     0  4.966075110E-01 -1.161556777E-02  3.063479255E+01  3.063881963E+01  0.000000000E+00  0.00000E+00  9.000E+00
#rwgt            1          24  -7980493.2045894293                3     4551587           0
<weights>
-.11145E+08
-.12429E+08
-.96814E+07
-.15114E+08
-.77575E+07
-.91658E+07
-.13909E+08
-.11178E+08
-.11113E+08
-.10835E+08
-.10831E+08
-.10966E+08
-.11016E+08
-.10854E+08
-.10840E+08
-.11224E+08
-.11202E+08
-.11446E+08
-.11483E+08
-.11472E+08
-.11423E+08
-.11481E+08
-.11503E+08
-.11385E+08
-.11328E+08
-.11283E+08
-.11313E+08
-.11417E+08
-.11356E+08
-.11457E+08
-.11493E+08
-.11178E+08
-.11216E+08
-.11139E+08
-.11174E+08
-.11214E+08
-.11095E+08
-.11110E+08
-.11106E+08
-.11161E+08
-.11132E+08
-.11182E+08
-.11107E+08
-.11488E+08
-.10829E+08
</weights>
</event>
<event>
      6  10001 -1.11453E+07  8.94427E-01 -1.00000E+00  2.86648E-01
       2    -1     0     0   501     0  0.000000000E+00  0.000000000E+00  2.909272058E+02  2.909272058E+02  0.000000000E+00  0.00000E+00  9.000E+00
      21    -1     0     0   502   501  0.000000000E+00  0.000000000E+00 -1.221042868E-02  1.221042868E-02  0.000000000E+00  0.00000E+00  9.000E+00
      23     2     1     2     0     0 -2.477773289E-01 -3.741119310E-01  2.861684553E+02  2.861717128E+02  1.289590759E+00  0.00000E+00  9.000E+00
      11     1     3     3     0     0 -3.421930479E-01 -5.914046370E-01  2.745105363E+02  2.745113866E+02  5.110000000E-04  0.00000E+00  9.000E+00
     -11     1     3     3     0     0  9.441571902E-02  2.172927060E-01  1.165791908E+01  1.166032624E+01  5.110000000E-04  0.00000E+00  9.000E+00
       2     1     1     2   502     0  2.477773289E-01  3.741119310E-01  4.746540053E+00  4.767703411E+00  0.000000000E+00  0.00000E+00  9.000E+00
#rwgt            1          24  -49680554.423458144                3     4553227           0
<weights>
-.11145E+08
-.11677E+08
-.10446E+08
-.14197E+08
-.83702E+07
-.91669E+07
-.13909E+08
-.11177E+08
-.11114E+08
-.10831E+08
-.10825E+08
-.10964E+08
-.11013E+08
-.10850E+08
-.10835E+08
-.11225E+08
-.11205E+08
-.11452E+08
-.11488E+08
-.11477E+08
-.11429E+08
-.11488E+08
-.11509E+08
-.11391E+08
-.11329E+08
-.11285E+08
-.11314E+08
-.11423E+08
-.11361E+08
-.11464E+08
-.11500E+08
-.11180E+08
-.11216E+08
-.11138E+08
-.11176E+08
-.11213E+08
-.11096E+08
-.11118E+08
-.11098E+08
-.11163E+08
-.11131E+08
-.11183E+08
-.11106E+08
-.11494E+08
-.10824E+08
</weights>
</event>
<event>
      7  10001  1.11453E+07  1.36886E+00 -1.00000E+00  4.54660E-01
      -4    -1     0     0     0   502  0.000000000E+00  0.000000000E+00  1.748806145E-01  1.748806145E-01  0.000000000E+00  0.00000E+00  9.000E+00
      21    -1     0     0   502   501  0.000000000E+00  0.000000000E+00 -3.359742132E+01  3.359742132E+01  0.000000000E+00  0.00000E+00  9.000E+00
      23     2     1     2     0     0  2.530924977E-01  2.665087358E-02 -3.206845964E+00  3.553601835E+00  1.509787696E+00  0.00000E+00  9.000E+00
      11     1     3     3     0     0  8.746116749E-01 -5.224260136E-02 -1.523903030E+00  1.757826948E+00  5.110000000E-04  0.00000E+00  9.000E+00
     -11     1     3     3     0     0 -6.215191772E-01  7.889347494E-02 -1.682942933E+00  1.795774887E+00  5.110000000E-04  0.00000E+00  9.000E+00
      -4     1     1     2     0   511 -5.159647057E-02 -6.688804640E-02 -1.571832326E+00  1.574100718E+00  0.000000000E+00  0.00000E+00  9.000E+00
      21     1     1     2   511   501 -2.014960271E-01  4.023717282E-02 -2.864386242E+01  2.864459939E+01  4.768371582E-07  0.00000E+00  9.000E+00
#rwgt            2          41   410176.58295885765                3     4554571           0
<weights>
0.11145E+08
0.11133E+08
0.10893E+08
0.13530E+08
0.87280E+07
0.91702E+07
0.13910E+08
0.11216E+08
0.11074E+08
0.10959E+08
0.11020E+08
0.11007E+08
0.11131E+08
0.11008E+08
0.11022E+08
0.11192E+08
0.11119E+08
0.11261E+08
0.11263E+08
0.11258E+08
0.11255E+08
0.11259E+08
0.11296E+08
0.11156E+08
0.11301E+08
0.11258E+08
0.11068E+08
0.11235E+08
0.11178E+08
0.11214E+08
0.11268E+08
0.11112E+08
0.11216E+08
0.11156E+08
0.11137E+08
0.11266E+08
0.11037E+08
0.10892E+08
0.11378E+08
0.11098E+08
0.11188E+08
0.11143E+08
0.11148E+08
0.11298E+08
0.10994E+08
</weights>
</event>
<event>
      6  10001 -1.11453E+07  8.94427E-01 -1.00000E+00  3.04312E-01
       2    -1     0     0   501     0  0.000000000E+00  0.000000000E+00  4.070743858E+02  4.070743858E+02  0.000000000E+00  0.00000E+00  9.000E+00
      21    -1     0     0   502   501  0.000000000E+00  0.000000000E+00 -7.956494793E-03  7.956494793E-03  0.000000000E+00  0.00000E+00  9.000E+00
      23     2     1     2     0     0  3.925499237E-01 -1.739116418E-01  4.003035610E+02  4.003058588E+02  1.286587664E+00  0.00000E+00  9.000E+00
      11     1     3     3     0     0 -4.872590708E-03 -6.977448352E-01  2.139325619E+02  2.139336998E+02  5.110000000E-04  0.00000E+00  9.000E+00
     -11     1     3     3     0     0  3.974225144E-01  5.238331934E-01  1.863709991E+02  1.863721590E+02  5.110000000E-04  0.00000E+00  9.000E+00
       2     1     1     2   502     0 -3.925499237E-01  1.739116418E-01  6.762868264E+00  6.776483444E+00  0.000000000E+00  0.00000E+00  9.000E+00
#rwgt            1          24  -21970466.859925918                3     4555867           0
<weights>
-.11145E+08
-.11984E+08
-.10087E+08
-.14577E+08
-.80824E+07
-.91630E+07
-.13909E+08
-.11170E+08
-.11122E+08
-.10822E+08
-.10811E+08
-.10961E+08
-.11005E+08
-.10839E+08
-.10822E+08
-.11226E+08
-.11212E+08
-.11464E+08
-.11507E+08
-.11495E+08
-.11441E+08
-.11504E+08
-.11523E+08
-.11417E+08
-.11328E+08
-.11287E+08
-.11365E+08
-.11437E+08
-.11374E+08
-.11482E+08
-.11517E+08
-.11184E+08
-.11217E+08
-.11138E+08
-.11178E+08
-.11207E+08
-.11103E+08
-.11135E+08
-.11081E+08
-.11167E+08
-.11127E+08
-.11186E+08
-.11103E+08
-.11508E+08
-.10812E+08
</weights>
</event>
<event>
      6  10001 -1.11453E+07  8.94427E-01 -1.00000E+00  2.78722E-01
      21    -1     0     0   502   501  0.000000000E+00  0.000000000E+00  7.943341071E-04  7.943341071E-04  0.000000000E+00  0.00000E+00  9.000E+00
       2    -1     0     0   501     0  0.000000000E+00  0.000000000E+00 -7.963947652E+02  7.963947652E+02  0.000000000E+00  0.00000E+00  9.000E+00
      23     2     1     2     0     0 -2.496456910E-01  3.834887457E-02 -7.228796350E+02  7.228807898E+02  1.267180890E+00  0.00000E+00  9.000E+00
      11     1     3     3     0     0 -5.701621779E-01 -4.201548773E-01 -4.717745882E+02  4.717751198E+02  5.110000000E-04  0.00000E+00  9.000E+00
     -11     1     3     3     0     0  3.205164869E-01  4.585037519E-01 -2.511050469E+02  2.511056700E+02  5.110000000E-04  0.00000E+00  9.000E+00
       2     1     1     2   502     0  2.496456910E-01 -3.834887457E-02 -7.351433588E+01  7.351476977E+01  0.000000000E+00  0.00000E+00  9.000E+00
#rwgt            1          17  -7561730.5163655551                3     4556591           0
<weights>
-.11145E+08
-.11336E+08
-.10866E+08
-.13778E+08
-.87066E+07
-.91702E+07
-.13910E+08
-.11136E+08
-.11155E+08
-.11163E+08
-.11138E+08
-.10919E+08
-.11398E+08
-.11152E+08
-.11146E+08
-.10960E+08
-.11407E+08
-.11587E+08
-.10548E+08
-.10452E+08
-.11648E+08
-.11122E+08
-.11166E+08
-.10927E+08
-.11337E+08
-.11592E+08
-.10878E+08
-.10548E+08
-.11847E+08
-.11048E+08
-.11212E+08
-.11137E+08
-.11150E+08
-.11757E+08
-.10423E+08
-.11051E+08
-.11232E+08
-.11119E+08
-.11184E+08
-.11324E+08
-.10988E+08
-.11117E+08
-.11175E+08
-.11139E+08
-.11152E+08
</weights>
</event>
<event>
      6  10001 -1.11453E+07  8.94427E-01 -1.00000E+00  1.65730E-01
      21    -1     0     0   502   501  0.000000000E+00  0.000000000E+00  6.009748363E-03  6.009748363E-03  0.000000000E+00  0.00000E+00  9.000E+00
      -3    -1     0     0     0   502  0.000000000E+00  0.000000000E+00 -7.513228735E+01  7.513228735E+01  0.000000000E+00  0.00000E+00  9.000E+00
      23     2     1     2     0     0  1.597571058E-02  2.927346209E-01 -6.184525258E+01  6.185403670E+01  1.000320083E+00  0.00000E+00  9.000E+00
      11     1     3     3     0     0  1.072022985E-01  4.895680376E-01 -1.516308056E+01  1.517136057E+01  5.110000000E-04  0.00000E+00  9.000E+00
     -11     1     3     3     0     0 -9.122658796E-02 -1.968334168E-01 -4.668217202E+01  4.668267613E+01  5.110000000E-04  0.00000E+00  9.000E+00
      -3     1     1     2     0   501 -1.597571058E-02 -2.927346209E-01 -1.328102502E+01  1.328426040E+01  0.000000000E+00  0.00000E+00  9.000E+00
#rwgt            1          13  -203354.37434318903                3     4557330           0
<weights>
-.11145E+08
-.12415E+08
-.97168E+07
-.15089E+08
-.77856E+07
-.91702E+07
-.13910E+08
-.11145E+08
-.11144E+08
-.11060E+08
-.11210E+08
-.11354E+08
-.10858E+08
-.11165E+08
-.11148E+08
-.12309E+08
-.95765E+07
-.11494E+08
-.10575E+08
-.10606E+08
-.11417E+08
-.11084E+08
-.11143E+08
-.10382E+08
-.11737E+08
-.10358E+08
-.10912E+08
-.10245E+08
-.12142E+08
-.11003E+08
-.11179E+08
-.11213E+08
-.11068E+08
-.11221E+08
-.11076E+08
-.11218E+08
-.11076E+08
-.10976E+08
-.11349E+08
-.11094E+08
-.11181E+08
-.11241E+08
-.11042E+08
-.11138E+08
-.11139E+08
</weights>
</event>
<event>
      6  10001 -1.11453E+07  8.94427E-01 -1.00000E+00  2.16747E-01
      21    -1     0     0   502   501  0.000000000E+00  0.000000000E+00  1.811548381E-03  1.811548381E-03  0.000000000E+00  0.00000E+00  9.000E+00
       2    -1     0     0   501     0  0.000000000E+00  0.000000000E+00 -3.898129366E+02  3.898129366E+02  0.000000000E+00  0.00000E+00  9.000E+00
      23     2     1     2     0     0 -3.659226214E-01  1.829040458E-01 -2.875510913E+02  2.875538961E+02  1.202379618E+00  0.00000E+00  9.000E+00
      11     1     3     3     0     0  3.299610046E-01  7.720063011E-02 -1.884741667E+02  1.884744713E+02  5.110000000E-04  0.00000E+00  9.000E+00
     -11     1     3     3     0     0 -6.958836260E-01  1.057034157E-01 -9.907692461E+01  9.907942479E+01  5.110000000E-04  0.00000E+00  9.000E+00
       2     1     1     2   502     0  3.659226214E-01 -1.829040458E-01 -1.022600338E+02  1.022608521E+02  0.000000000E+00  0.00000E+00  9.000E+00
#rwgt            1          17  -18193480.690138068                3     4557728           0
<weights>
-.11145E+08
-.11479E+08
-.10707E+08
-.13951E+08
-.85793E+07
-.91702E+07
-.13910E+08
-.11128E+08
-.11162E+08
-.11167E+08
-.11155E+08
-.11013E+08
-.11297E+08
-.11160E+08
-.11157E+08
-.11320E+08
-.10882E+08
-.11416E+08
-.10745E+08
-.10692E+08
-.11446E+08
-.11106E+08
-.11166E+08
-.11081E+08
-.11166E+08
-.11280E+08
-.11057E+08
-.10820E+08
-.11485E+08
-.11076E+08
-.11177E+08
-.11021E+08
-.11266E+08
-.11438E+08
-.10779E+08
-.11110E+08
-.11176E+08
-.11156E+08
-.11138E+08
-.11230E+08
-.11068E+08
-.11141E+08
-.11150E+08
-.11129E+08
-.11162E+08
</weights>
</event>
<event>
      7  10001  1.11453E+07  5.57369E+00 -1.00000E+00  2.29307E-01
      21    -1     0     0   502   501  0.000000000E+00  0.000000000E+00  4.571975341E+01  4.571975341E+01  0.000000000E+00  0.00000E+00  9.000E+00
      -2    -1     0     0     0   502  0.000000000E+00  0.000000000E+00 -1.897625266E-01  1.897625266E-01  0.000000000E+00  0.00000E+00  9.000E+00
      23     2     1     2     0     0 -3.069754068E-01 -3.957357505E-01  1.611088645E+00  1.977845240E+00  1.032194016E+00  0.00000E+00  9.000E+00
      11     1     3     3     0     0 -1.199120060E-01  2.823118262E-01  1.203309289E-01  3.294823970E-01  5.110000000E-04  0.00000E+00  9.000E+00
     -11     1     3     3     0     0 -1.870634009E-01 -6.780475767E-01  1.490757716E+00  1.648362843E+00  5.110000000E-04  0.00000E+00  9.000E+00
      -2     1     1     2     0   511  1.065635735E-02  1.660485775E-02  1.414526223E-02  2.427689635E-02  0.000000000E+00  0.00000E+00  9.000E+00
      21     1     1     2   511   501  2.963190495E-01  3.791308928E-01  4.390475698E+01  4.390739380E+01  4.768371582E-07  0.00000E+00  9.000E+00
#rwgt            1          14   2092350.4958100438                3     4558471           0
<weights>
0.11145E+08
0.12001E+08
0.10191E+08
0.12803E+08
0.93660E+07
0.10392E+08
0.12034E+08
0.10954E+08
0.11390E+08
0.10809E+08
0.10768E+08
0.10971E+08
0.10957E+08
0.10817E+08
0.10783E+08
0.11188E+08
0.11295E+08
0.11517E+08
0.11517E+08
0.11500E+08
0.11495E+08
0.11555E+08
0.11550E+08
0.11484E+08
0.11288E+08
0.11347E+08
0.11247E+08
0.11507E+08
0.11357E+08
0.11545E+08
0.11552E+08
0.11167E+08
0.11249E+08
0.11138E+08
0.11186E+08
0.11035E+08
0.11295E+08
0.11197E+08
0.11024E+08
0.11176E+08
0.11116E+08
0.11216E+08
0.11070E+08
0.11542E+08
0.10784E+08
</weights>
</event>
<event>
      7  10001  1.11453E+07  1.10004E+00 -1.00000E+00  5.27014E-01
      21    -1     0     0   502   512  0.000000000E+00  0.000000000E+00  3.931680403E+02  3.931680403E+02  0.000000000E+00  0.00000E+00  9.000E+00
      -2    -1     0     0     0   502  0.000000000E+00  0.000000000E+00 -4.360468375E+01  4.360468375E+01  0.000000000E+00  0.00000E+00  9.000E+00
      23     2     1     2     0     0 -4.087586220E-01 -5.989800919E-01 -4.322475400E+01  4.326934151E+01  1.825019512E+00  0.00000E+00  9.000E+00
      11     1     3     3     0     0 -6.894248722E-01  4.507560015E-01 -1.382754397E+01  1.385205617E+01  5.110000000E-04  0.00000E+00  9.000E+00
     -11     1     3     3     0     0  2.806662501E-01 -1.049736093E+00 -2.939721003E+01  2.941728535E+01  5.110000000E-04  0.00000E+00  9.000E+00
      -2     1     1     2     0   501 -5.421774727E-01  4.598397152E-02 -1.494557094E-01  5.642764807E-01  0.000000000E+00  0.00000E+00  9.000E+00
      21     1     1     2   501   512  9.509360948E-01  5.529961204E-01  3.929375663E+02  3.929391061E+02  5.394796609E-06  0.00000E+00  9.000E+00
#rwgt            1          14   4426776.6236953633                3     4574707           0
<weights>
0.11145E+08
0.14547E+08
0.74274E+07
0.13990E+08
0.83383E+07
0.11657E+08
0.10093E+08
0.11272E+08
0.11020E+08
0.10855E+08
0.10946E+08
0.11009E+08
0.10961E+08
0.10919E+08
0.10937E+08
0.11054E+08
0.11344E+08
0.11381E+08
0.11312E+08
0.11274E+08
0.11389E+08
0.11339E+08
0.11406E+08
0.11269E+08
0.11314E+08
0.11404E+08
0.11005E+08
0.11343E+08
0.11082E+08
0.11290E+08
0.11347E+08
0.11048E+08
0.11306E+08
0.11311E+08
0.10992E+08
0.10907E+08
0.11379E+08
0.10829E+08
0.11428E+08
0.11129E+08
0.11143E+08
0.11324E+08
0.10954E+08
0.11386E+08
0.10913E+08
</weights>
</event>
<event>
      7  10001  1.11453E+07  1.32553E+00 -1.00000E+00  4.64627E-01
       2    -1     0     0   501     0  0.000000000E+00  0.000000000E+00  3.378128796E+01  3.378128796E+01  0.000000000E+00  0.00000E+00  9.000E+00
      -2    -1     0     0     0   502  0.000000000E+00  0.000000000E+00 -7.210203668E-01  7.210203668E-01  0.000000000E+00  0.00000E+00  9.000E+00
      23     2     1     2     0     0 -4.128394159E+00  8.280019876E-01  1.093186588E+01  1.177523195E+01  1.192128448E+00  0.00000E+00  9.000E+00
      11     1     3     3     0     0 -4.004968730E+00  9.310446160E-01  9.736602713E+00  1.056920296E+01  5.110000000E-04  0.00000E+00  9.000E+00
     -11     1     3     3     0     0 -1.234254289E-01 -1.030426284E-01  1.195263168E+00  1.206028988E+00  5.110000000E-04  0.00000E+00  9.000E+00
      21     1     1     2   501   511  4.338470799E+00 -1.162316370E-02  1.865504112E+01  1.915288550E+01  4.768371582E-07  0.00000E+00  9.000E+00
      21     1     1     2   511   502 -2.100766402E-01 -8.163788239E-01  3.473360596E+00  3.574190875E+00  4.214684851E-08  0.00000E+00  9.000E+00
#rwgt            1          23   374702.70475156425                3     4604251           0
<weights>
0.11145E+08
0.11500E+08
0.10715E+08
0.12648E+08
0.94771E+07
0.10078E+08
0.12516E+08
0.11082E+08
0.11219E+08
0.10836E+08
0.10818E+08
0.10974E+08
0.10996E+08
0.10851E+08
0.10829E+08
0.11198E+08
0.11249E+08
0.11470E+08
0.11462E+08
0.11452E+08
0.11449E+08
0.11497E+08
0.11505E+08
0.11385E+08
0.11316E+08
0.11335E+08
0.11147E+08
0.11452E+08
0.11324E+08
0.11478E+08
0.11499E+08
0.11163E+08
0.11235E+08
0.11142E+08
0.11174E+08
0.11112E+08
0.11204E+08
0.11132E+08
0.11085E+08
0.11163E+08
0.11129E+08
0.11200E+08
0.11088E+08
0.11495E+08
0.10823E+08
</weights>
</event>
<event>
      6  10001  1.11453E+07  8.94427E-01 -1.00000E+00  6.06577E-01
      21    -1     0     0   502   501  0.000000000E+00  0.000000000E+00  3.757956286E-02  3.757956286E-02  0.000000000E+00  0.00000E+00  9.000E+00
       2    -1     0     0   501     0  0.000000000E+00  0.000000000E+00 -1.270228259E+02  1.270228259E+02  0.000000000E+00  0.00000E+00  9.000E+00
      23     2     1     2     0     0  4.938926785E-01  1.628770570E-01 -1.245591912E+02  1.245792359E+02  2.173348495E+00  0.00000E+00  9.000E+00
      11     1     3     3     0     0  5.149393470E-01 -9.665481713E-01 -5.546109408E+01  5.547190582E+01  5.110000000E-04  0.00000E+00  9.000E+00
     -11     1     3     3     0     0 -2.104666850E-02  1.129425228E+00 -6.909809715E+01  6.910733011E+01  5.110000000E-04  0.00000E+00  9.000E+00
       2     1     1     2   502     0 -4.938926785E-01 -1.628770570E-01 -2.426055081E+00  2.481169517E+00  0.000000000E+00  0.00000E+00  9.000E+00
#rwgt            1          17   7232526.1413227972                3     4609928           0
<weights>
0.11145E+08
0.13005E+08
0.91564E+07
0.13383E+08
0.88917E+07
0.10794E+08
0.11417E+08
0.11157E+08
0.11133E+08
0.11136E+08
0.11159E+08
0.11182E+08
0.11077E+08
0.11155E+08
0.11156E+08
0.11191E+08
0.11045E+08
0.11060E+08
0.11216E+08
0.11230E+08
0.11049E+08
0.11131E+08
0.11129E+08
0.11265E+08
0.11002E+08
0.11035E+08
0.11199E+08
0.11267E+08
0.10925E+08
0.11147E+08
0.11118E+08
0.11131E+08
0.11152E+08
0.11050E+08
0.11259E+08
0.11142E+08
0.11143E+08
0.11130E+08
0.11164E+08
0.11094E+08
0.11184E+08
0.11209E+08
0.11077E+08
0.11135E+08
0.11151E+08
</weights>
</event>
<event>
      6  10001 -1.11453E+07  8.94427E-01 -1.00000E+00  1.81019E-01
      21    -1     0     0   502   501  0.000000000E+00  0.000000000E+00  1.808383891E-02  1.808383891E-02  0.000000000E+00  0.00000E+00  9.000E+00
       2    -1     0     0   501     0  0.000000000E+00  0.000000000E+00 -4.736368336E+01  4.736368336E+01  0.000000000E+00  0.00000E+00  9.000E+00
      23     2     1     2     0     0 -2.124511485E-01  2.250325872E-01 -4.415479798E+01  4.417599277E+01  1.332808393E+00  0.00000E+00  9.000E+00
      11     1     3     3     0     0 -7.427285651E-01  3.402879743E-01 -2.890314600E+01  2.891468988E+01  5.110000000E-04  0.00000E+00  9.000E+00
     -11     1     3     3     0     0  5.302774165E-01 -1.152553872E-01 -1.525165197E+01  1.526130290E+01  5.110000000E-04  0.00000E+00  9.000E+00
       2     1     1     2   502     0  2.124511485E-01 -2.250325872E-01 -3.190801543E+00  3.205774422E+00  0.000000000E+00  0.00000E+00  9.000E+00
#rwgt            1          17  -7059948.3269449472                3     4628643           0
<weights>
-.11145E+08
-.12560E+08
-.96092E+07
-.15265E+08
-.76994E+07
-.91702E+07
-.13910E+08
-.11188E+08
-.11103E+08
-.11070E+08
-.11111E+08
-.11147E+08
-.11058E+08
-.11103E+08
-.11110E+08
-.11101E+08
-.11196E+08
-.11079E+08
-.11305E+08
-.11316E+08
-.11070E+08
-.11180E+08
-.11175E+08
-.11236E+08
-.11107E+08
-.11119E+08
-.11154E+08
-.11315E+08
-.10933E+08
-.11177E+08
-.11157E+08
-.11143E+08
-.11156E+08
-.11068E+08
-.11253E+08
-.11121E+08
-.11169E+08
-.11027E+08
-.11269E+08
-.11079E+08
-.11199E+08
-.11207E+08
-.11079E+08
-.11192E+08
-.11096E+08
</weights>
</event>
<event>
      7  10001  1.11453E+07  1.86363E+00 -1.00000E+00  3.67588E-01
       2    -1     0     0   501     0  0.000000000E+00  0.000000000E+00  1.646346736E+01  1.646346736E+01  0.000000000E+00  0.00000E+00  9.000E+00
      21    -1     0     0   502   511  0.000000000E+00  0.000000000E+00 -1.439974848E+01  1.439974848E+01  0.000000000E+00  0.00000E+00  9.000E+00
      23     2     1     2     0     0  1.365906234E+00 -7.787939998E-01  9.611267673E+00  9.821127065E+00  1.267221605E+00  0.00000E+00  9.000E+00
      11     1     3     3     0     0 -2.205121098E-01 -2.750207007E-01  1.870336117E+00  1.903265464E+00  5.110000000E-04  0.00000E+00  9.000E+00
     -11     1     3     3     0     0  1.586418344E+00 -5.037732990E-01  7.740931557E+00  7.917861601E+00  5.110000000E-04  0.00000E+00  9.000E+00
       2     1     1     2   502     0 -1.002321237E+00 -1.049025596E+00  6.607482013E+00  6.764903630E+00  0.000000000E+00  0.00000E+00  9.000E+00
      21     1     1     2   501   511 -3.635849965E-01  1.827819596E+00 -1.415503081E+01  1.427718515E+01  1.685873940E-07  0.00000E+00  9.000E+00
#rwgt            1          24   756401.82118612982                3     4630909           0
<weights>
0.11145E+08
0.16738E+08
0.57667E+07
0.98384E+07
0.10906E+08
0.16001E+08
0.34232E+07
0.11089E+08
0.11204E+08
0.10549E+08
0.10402E+08
0.10845E+08
0.10794E+08
0.10510E+08
0.10432E+08
0.11267E+08
0.11432E+08
0.11861E+08
0.11980E+08
0.11951E+08
0.11809E+08
0.11984E+08
0.11958E+08
0.11911E+08
0.11408E+08
0.11454E+08
0.11833E+08
0.11874E+08
0.11705E+08
0.12003E+08
0.11996E+08
0.11315E+08
0.11230E+08
0.11099E+08
0.11261E+08
0.11142E+08
0.11185E+08
0.11599E+08
0.10555E+08
0.11295E+08
0.11015E+08
0.11242E+08
0.11044E+08
0.11920E+08
0.10452E+08
</weights>
</event>
<event>
      6  10001 -1.11453E+07  8.94427E-01 -1.00000E+00  2.17351E-01
      -3    -1     0     0     0   502  0.000000000E+00  0.000000000E+00  1.248945539E+02  1.248945539E+02  0.000000000E+00  0.00000E+00  9.000E+00
       3    -1     0     0   501     0  0.000000000E+00  0.000000000E+00 -1.108151850E-02  1.108151850E-02  0.000000000E+00  0.00000E+00  9.000E+00
      23     2     1     2     0     0  3.083911754E-01  3.030996397E-01  9.511494256E+01  9.513396529E+01  1.852587135E+00  0.00000E+00  9.000E+00
      11     1     3     3     0     0  1.063945169E+00  2.653813223E-01  6.642786781E+01  6.643691766E+01  5.110000000E-04  0.00000E+00  9.000E+00
     -11     1     3     3     0     0 -7.555539937E-01  3.771831737E-02  2.868707475E+01  2.869704763E+01  5.110000000E-04  0.00000E+00  9.000E+00
      21     1     1     2   501   502 -3.083911754E-01 -3.030996397E-01  2.976852983E+01  2.977167014E+01  4.768371582E-07  0.00000E+00  9.000E+00
#rwgt            1           6  -105795.37430235527                3     4666086           0
<weights>
-.11145E+08
-.12797E+08
-.92963E+07
-.15563E+08
-.74490E+07
-.91645E+07
-.13909E+08
-.11170E+08
-.11121E+08
-.10815E+08
-.10802E+08
-.10961E+08
-.10997E+08
-.10831E+08
-.10813E+08
-.11224E+08
-.11220E+08
-.11461E+08
-.11559E+08
-.11534E+08
-.11438E+08
-.11514E+08
-.11535E+08
-.11511E+08
-.11310E+08
-.11265E+08
-.11774E+08
-.11438E+08
-.11398E+08
-.11494E+08
-.11529E+08
-.11189E+08
-.11216E+08
-.11137E+08
-.11180E+08
-.11207E+08
-.11103E+08
-.11148E+08
-.11068E+08
-.11171E+08
-.11124E+08
-.11188E+08
-.11101E+08
-.11518E+08
-.10803E+08
</weights>
</event>
<event>
      6  10001  1.11453E+07  8.94427E-01 -1.00000E+00  6.04649E-01
       4    -1     0     0   501     0  0.000000000E+00  0.000000000E+00  6.357252587E+00  6.357252587E+00  0.000000000E+00  0.00000E+00  9.000E+00
      21    -1     0     0   502   501  0.000000000E+00  0.000000000E+00 -2.096069957E+00  2.096069957E+00  0.000000000E+00  0.00000E+00  9.000E+00
      23     2     1     2     0     0  1.940838072E-01 -2.511215968E-01  6.300781040E+00  6.389178109E+00  1.010457626E+00  0.00000E+00  9.000E+00
      11     1     3     3     0     0  5.895690739E-01 -1.130317395E-02  3.163815304E+00  3.218298773E+00  5.110000000E-04  0.00000E+00  9.000E+00
     -11     1     3     3     0     0 -3.954852667E-01 -2.398184228E-01  3.136965736E+00  3.170879336E+00  5.110000000E-04  0.00000E+00  9.000E+00
       4     1     1     2   502     0 -1.940838072E-01  2.511215968E-01 -2.039598410E+00  2.064144436E+00  0.000000000E+00  0.00000E+00  9.000E+00
#rwgt            1          28   4043440.7436330072                3     4666206           0
<weights>
0.12488E+08
0.19262E+08
0.53602E+07
0.16208E+08
0.87063E+07
0.15023E+08
0.82966E+07
0.12555E+08
0.12411E+08
0.11737E+08
0.11639E+08
0.12144E+08
0.12034E+08
0.11707E+08
0.11652E+08
0.12688E+08
0.12734E+08
0.13345E+08
0.13405E+08
0.13400E+08
0.13270E+08
0.13443E+08
0.13487E+08
0.13088E+08
0.12992E+08
0.12886E+08
0.12603E+08
0.13286E+08
0.13126E+08
0.13436E+08
0.13472E+08
0.12660E+08
0.12607E+08
0.12444E+08
0.12602E+08
0.12570E+08
0.12440E+08
0.12809E+08
0.11940E+08
0.12665E+08
0.12329E+08
0.12622E+08
0.12346E+08
0.13404E+08
0.11665E+08
</weights>
</event>
<event>
      7  10001  1.11453E+07  1.10556E+00 -1.00000E+00  5.25217E-01
       2    -1     0     0   501     0  0.000000000E+00  0.000000000E+00  1.740831832E-01  1.740831832E-01  0.000000000E+00  0.00000E+00  9.000E+00
       3    -1     0     0   502     0  0.000000000E+00  0.000000000E+00 -2.389087949E+02  2.389087949E+02  0.000000000E+00  0.00000E+00  9.000E+00
      23     2     1     2     0     0 -1.079910715E+00  1.789296929E+00 -1.346885460E+01  1.369774537E+01  1.360291685E+00  0.00000E+00  9.000E+00
      11     1     3     3     0     0 -1.345325096E-01  8.202495702E-01 -2.270725633E+00  2.418078476E+00  5.110000000E-04  0.00000E+00  9.000E+00
     -11     1     3     3     0     0 -9.453782058E-01  9.690473584E-01 -1.119812896E+01  1.127966690E+01  5.110000000E-04  0.00000E+00  9.000E+00
       2     1     1     2   502     0  1.353256340E+00 -7.180628336E-01 -1.001988929E+01  1.013632568E+01  0.000000000E+00  0.00000E+00  9.000E+00
       3     1     1     2   501     0 -2.733456241E-01 -1.071234095E+00 -2.152459678E+02  2.152488070E+02  0.000000000E+00  0.00000E+00  9.000E+00
#rwgt            1          24   628599.59165037982                3     4772031           0
<weights>
0.11145E+08
0.12218E+08
0.10017E+08
0.12227E+08
0.97772E+07
0.10961E+08
0.11161E+08
0.11255E+08
0.11033E+08
0.10739E+08
0.10790E+08
0.10910E+08
0.11008E+08
0.10776E+08
0.10790E+08
0.11232E+08
0.11216E+08
0.11492E+08
0.11543E+08
0.11540E+08
0.11466E+08
0.11514E+08
0.11601E+08
0.11279E+08
0.11491E+08
0.11426E+08
0.11020E+08
0.11468E+08
0.11329E+08
0.11461E+08
0.11536E+08
0.11146E+08
0.11260E+08
0.11150E+08
0.11159E+08
0.11318E+08
0.10995E+08
0.10904E+08
0.11249E+08
0.11152E+08
0.11141E+08
0.11171E+08
0.11119E+08
0.11555E+08
0.10764E+08
</weights>
</event>
<event>
      7  10001  1.11453E+07  1.89269E+00 -1.00000E+00  3.64516E-01
       2    -1     0     0   501     0  0.000000000E+00  0.000000000E+00  7.530865711E+01  7.530865711E+01  0.000000000E+00  0.00000E+00  9.000E+00
      21    -1     0     0   502   501  0.000000000E+00  0.000000000E+00 -3.376867019E-02  3.376867019E-02  0.000000000E+00  0.00000E+00  9.000E+00
      23     2     1     2     0     0  1.910998237E-01 -3.221443469E-01  6.649062507E+01  6.650291497E+01  1.222367205E+00  0.00000E+00  9.000E+00
      11     1     3     3     0     0  1.413768143E-02  3.464480507E-01  4.464116984E+01  4.464251640E+01  5.110000000E-04  0.00000E+00  9.000E+00
     -11     1     3     3     0     0  1.769621423E-01 -6.685923977E-01  2.184945523E+01  2.186039857E+01  5.110000000E-04  0.00000E+00  9.000E+00
       2     1     1     2   511     0  2.454720270E-01  1.375350386E-01  6.524786962E+00  6.530851193E+00  0.000000000E+00  0.00000E+00  9.000E+00
      21     1     1     2   502   511 -4.365718507E-01  1.846093084E-01  2.259476406E+00  2.308659613E+00  5.960464478E-08  0.00000E+00  9.000E+00
#rwgt            2         248   13638889.423506415                3     4860415           0
<weights>
0.11145E+08
0.11486E+08
0.10530E+08
0.13960E+08
0.84376E+07
0.91702E+07
0.13910E+08
0.11167E+08
0.11125E+08
0.10814E+08
0.10800E+08
0.10959E+08
0.10998E+08
0.10830E+08
0.10811E+08
0.11227E+08
0.11218E+08
0.11475E+08
0.11521E+08
0.11508E+08
0.11450E+08
0.11517E+08
0.11535E+08
0.11433E+08
0.11329E+08
0.11290E+08
0.11384E+08
0.11448E+08
0.11384E+08
0.11497E+08
0.11530E+08
0.11188E+08
0.11218E+08
0.11137E+08
0.11180E+08
0.11204E+08
0.11106E+08
0.11149E+08
0.11067E+08
0.11171E+08
0.11124E+08
0.11188E+08
0.11101E+08
0.11519E+08
0.10802E+08
</weights>
</event>
<event>
      6  10001 -1.11453E+07  8.94427E-01 -1.00000E+00  2.52344E-01
      -5    -1     0     0     0   502  0.000000000E+00  0.000000000E+00  7.742104101E-01  7.742104101E-01  0.000000000E+00  0.00000E+00  9.000E+00
      21    -1     0     0   502   501  0.000000000E+00  0.000000000E+00 -9.709987790E-01  9.709987790E-01  0.000000000E+00  0.00000E+00  9.000E+00
      23     2     1     2     0     0  2.839368669E-01  7.172290858E-02 -1.164902952E-01  1.441544735E+00  1.406668729E+00  0.00000E+00  9.000E+00
      11     1     3     3     0     0  5.482297755E-01 -5.387398329E-01 -1.086951330E-01  7.762804824E-01  5.110000000E-04  0.00000E+00  9.000E+00
     -11     1     3     3     0     0 -2.642929086E-01  6.104627415E-01 -7.795162160E-03  6.652642527E-01  5.110000000E-04  0.00000E+00  9.000E+00
      -5     1     1     2     0   501 -2.839368669E-01 -7.172290858E-02 -8.029807376E-02  3.036644540E-01  0.000000000E+00  0.00000E+00  9.000E+00
#rwgt            1           1  -226769.38180601023                3     4861084           0
<weights>
-.11145E+08
-.98256E+07
-.11642E+08
-.15684E+08
-.75664E+07
-.69679E+07
-.17291E+08
-.11211E+08
-.11078E+08
-.10958E+08
-.11010E+08
-.11018E+08
-.11110E+08
-.11001E+08
-.11012E+08
-.11206E+08
-.11107E+08
-.11272E+08
-.11273E+08
-.11270E+08
-.11262E+08
-.11271E+08
-.11310E+08
-.11168E+08
-.11290E+08
-.11212E+08
-.11091E+08
-.11227E+08
-.11211E+08
-.11231E+08
-.11283E+08
-.11123E+08
-.11208E+08
-.11154E+08
-.11140E+08
-.11241E+08
-.11060E+08
-.10919E+08
-.11322E+08
-.11106E+08
-.11180E+08
-.11157E+08
-.11133E+08
-.11306E+08
-.10988E+08
</weights>
</event>
<event>
      6  10001 -1.11453E+07  8.94427E-01 -1.00000E+00  4.27655E-01
      -4    -1     0     0     0   502  0.000000000E+00  0.000000000E+00  1.340601209E+00  1.340601209E+00  0.000000000E+00  0.00000E+00  9.000E+00
      21    -1     0     0   502   501  0.000000000E+00  0.000000000E+00 -4.442060895E-01  4.442060895E-01  0.000000000E+00  0.00000E+00  9.000E+00
      23     2     1     2     0     0  2.117572404E-01 -2.768484882E-01  8.295342425E-01  1.429903662E+00  1.111310582E+00  0.00000E+00  9.000E+00
      11     1     3     3     0     0 -2.539045792E-01  3.135229012E-01  2.054865002E-01  4.527572284E-01  5.110000000E-04  0.00000E+00  9.000E+00
     -11     1     3     3     0     0  4.656618196E-01 -5.903713895E-01  6.240477423E-01  9.771464340E-01  5.110000000E-04  0.00000E+00  9.000E+00
      -4     1     1     2     0   501 -2.117572404E-01  2.768484882E-01  6.686087742E-02  3.549036365E-01  0.000000000E+00  0.00000E+00  9.000E+00
#rwgt            1           3  -1261388.0318677826                3     4864103           0
<weights>
-.11145E+08
-.10771E+08
-.10774E+08
-.17317E+08
-.64390E+07
-.65895E+07
-.17871E+08
-.11204E+08
-.11086E+08
-.11074E+08
-.11128E+08
-.11080E+08
-.11166E+08
-.11100E+08
-.11125E+08
-.11163E+08
-.11100E+08
-.11155E+08
-.11167E+08
-.11169E+08
-.11153E+08
-.11141E+08
-.11194E+08
-.11078E+08
-.11229E+08
-.11164E+08
-.11030E+08
-.11129E+08
-.11126E+08
-.11109E+08
-.11152E+08
-.11103E+08
-.11190E+08
-.11161E+08
-.11123E+08
-.11221E+08
-.11074E+08
-.10913E+08
-.11350E+08
-.11099E+08
-.11187E+08
-.11136E+08
-.11156E+08
-.11180E+08
-.11106E+08
</weights>
</event>
<event>
      7  10001  1.11453E+07  6.87311E+00 -1.00000E+00  2.15801E-01
      -3    -1     0     0     0   502  0.000000000E+00  0.000000000E+00  2.985402837E+01  2.985402837E+01  0.000000000E+00  0.00000E+00  9.000E+00
      21    -1     0     0   502   501  0.000000000E+00  0.000000000E+00 -4.637557883E-01  4.637557883E-01  0.000000000E+00  0.00000E+00  9.000E+00
      23     2     1     2     0     0  1.450485612E-01 -2.883062158E-01  2.667527177E+01  2.669850329E+01  1.065736422E+00  0.00000E+00  9.000E+00
      11     1     3     3     0     0  5.278590123E-01 -3.744686677E-01  1.153032558E+01  1.154847479E+01  5.110000000E-04  0.00000E+00  9.000E+00
     -11     1     3     3     0     0 -3.828104510E-01  8.616245187E-02  1.514494620E+01  1.515002849E+01  5.110000000E-04  0.00000E+00  9.000E+00
      -3     1     1     2     0   511  6.415254573E-02 -2.893537494E-01  2.947516044E+00  2.962379444E+00  0.000000000E+00  0.00000E+00  9.000E+00
      21     1     1     2   511   501 -2.092011070E-01  5.776599652E-01 -2.325152409E-01  6.569014201E-01  3.232749311E-07  0.00000E+00  9.000E+00
#rwgt            2          71   448179.31103518023                3     4878780           0
<weights>
0.11145E+08
0.11207E+08
0.10811E+08
0.13620E+08
0.86621E+07
0.91702E+07
0.13910E+08
0.11191E+08
0.11097E+08
0.10839E+08
0.10839E+08
0.10966E+08
0.11023E+08
0.10861E+08
0.10848E+08
0.11226E+08
0.11194E+08
0.11442E+08
0.11462E+08
0.11456E+08
0.11419E+08
0.11472E+08
0.11494E+08
0.11349E+08
0.11337E+08
0.11289E+08
0.11209E+08
0.11411E+08
0.11345E+08
0.11446E+08
0.11484E+08
0.11176E+08
0.11215E+08
0.11139E+08
0.11174E+08
0.11224E+08
0.11083E+08
0.11100E+08
0.11117E+08
0.11158E+08
0.11135E+08
0.11179E+08
0.11110E+08
0.11480E+08
0.10836E+08
</weights>
</event>
<event>
      6  10001 -1.11453E+07  8.94427E-01 -1.00000E+00  3.45643E-01
      21    -1     0     0   502   501  0.000000000E+00  0.000000000E+00  4.686033522E-03  4.686033522E-03  0.000000000E+00  0.00000E+00  9.000E+00
      -2    -1     0     0     0   502  0.000000000E+00  0.000000000E+00 -4.543416839E+02  4.543416839E+02  0.000000000E+00  0.00000E+00  9.000E+00
      23     2     1     2     0     0  4.501967474E-01 -6.871025942E-02 -4.393403785E+02  4.393428373E+02  1.397545355E+00  0.00000E+00  9.000E+00
      11     1     3     3     0     0  3.358061690E-01 -2.748887036E-01 -3.940952439E+01  3.941191371E+01  5.110000000E-04  0.00000E+00  9.000E+00
     -11     1     3     3     0     0  1.143905784E-01  2.061784441E-01 -3.999308541E+02  3.999309236E+02  5.110000000E-04  0.00000E+00  9.000E+00
      -2     1     1     2     0   501 -4.501967474E-01  6.871025942E-02 -1.499661941E+01  1.500353265E+01  0.000000000E+00  0.00000E+00  9.000E+00
#rwgt            1          14  -1170270.3084500276                3     4878841           0
<weights>
-.11145E+08
-.11033E+08
-.11154E+08
-.13409E+08
-.89368E+07
-.91702E+07
-.13910E+08
-.10880E+08
-.11402E+08
-.11464E+08
-.11360E+08
-.11152E+08
-.11314E+08
-.11335E+08
-.11373E+08
-.11031E+08
-.11215E+08
-.11003E+08
-.10917E+08
-.10903E+08
-.11019E+08
-.10904E+08
-.10995E+08
-.11067E+08
-.10999E+08
-.10925E+08
-.11222E+08
-.10932E+08
-.10988E+08
-.10978E+08
-.10961E+08
-.11398E+08
-.10823E+08
-.11329E+08
-.10970E+08
-.11437E+08
-.10873E+08
-.11664E+08
-.10623E+08
-.11169E+08
-.11105E+08
-.11337E+08
-.10940E+08
-.10882E+08
-.11412E+08
</weights>
</event>
<event>
      6  10001 -1.11453E+07  8.94427E-01 -1.00000E+00  4.39078E-01
      -4    -1     0     0     0   502  0.000000000E+00  0.000000000E+00  1.143342443E+01  1.143342443E+01  0.000000000E+00  0.00000E+00  9.000E+00
       4    -1     0     0   501     0  0.000000000E+00  0.000000000E+00 -7.263682595E-02  7.263682595E-02  0.000000000E+00  0.00000E+00  9.000E+00
      23     2     1     2     0     0  2.652599398E-01  2.234863024E-03  8.527939402E+00  8.660820183E+00  1.487846752E+00  0.00000E+00  9.000E+00
      11     1     3     3     0     0  4.164680463E-01 -6.505973967E-01  3.251679230E+00  3.342176040E+00  5.110000000E-04  0.00000E+00  9.000E+00
     -11     1     3     3     0     0 -1.512081065E-01  6.528322597E-01  5.276260172E+00  5.318644143E+00  5.110000000E-04  0.00000E+00  9.000E+00
      21     1     1     2   501   502 -2.652599398E-01 -2.234863024E-03  2.832848197E+00  2.845241069E+00  5.960464478E-08  0.00000E+00  9.000E+00
#rwgt            1           4  -291552.29821518861                3     4881274           0
<weights>
-.11145E+08
-.10436E+08
-.10956E+08
-.19438E+08
-.52898E+07
-.50644E+07
-.20213E+08
-.11210E+08
-.11078E+08
-.10904E+08
-.10936E+08
-.10993E+08
-.11074E+08
-.10938E+08
-.10941E+08
-.11214E+08
-.11145E+08
-.11346E+08
-.11355E+08
-.11351E+08
-.11330E+08
-.11356E+08
-.11394E+08
-.11232E+08
-.11321E+08
-.11255E+08
-.11101E+08
-.11308E+08
-.11264E+08
-.11320E+08
-.11369E+08
-.11143E+08
-.11213E+08
-.11148E+08
-.11153E+08
-.11241E+08
-.11062E+08
-.10978E+08
-.11239E+08
-.11127E+08
-.11162E+08
-.11165E+08
-.11125E+08
-.11383E+08
-.10921E+08
</weights>
</event>
<event>
      6  10001 -1.11453E+07  8.94427E-01 -1.00000E+00  1.71003E-01
      21    -1     0     0   502   501  0.000000000E+00  0.000000000E+00  2.474882649E-02  2.474882649E-02  0.000000000E+00  0.00000E+00  9.000E+00
       2    -1     0     0   501     0  0.000000000E+00  0.000000000E+00 -4.386026326E+01  4.386026326E+01  0.000000000E+00  0.00000E+00  9.000E+00
      23     2     1     2     0     0 -4.786048333E-01  9.856218189E-02 -3.172948129E+01  3.176912105E+01  1.509401334E+00  0.00000E+00  9.000E+00
      11     1     3     3     0     0 -8.194728111E-01  4.878711416E-01 -2.562740233E+01  2.564514193E+01  5.110000000E-04  0.00000E+00  9.000E+00
     -11     1     3     3     0     0  3.408679777E-01 -3.893089598E-01 -6.102078961E+00  6.123979127E+00  5.110000000E-04  0.00000E+00  9.000E+00
       2     1     1     2   502     0  4.786048333E-01 -9.856218189E-02 -1.210603315E+01  1.211589104E+01  0.000000000E+00  0.00000E+00  9.000E+00
#rwgt            1          17  -14744724.773303976                3     4882235           0
<weights>
-.11145E+08
-.12850E+08
-.93331E+07
-.15617E+08
-.74782E+07
-.91702E+07
-.13910E+08
-.11191E+08
-.11100E+08
-.11059E+08
-.11101E+08
-.11144E+08
-.11051E+08
-.11092E+08
-.11100E+08
-.11095E+08
-.11210E+08
-.11085E+08
-.11321E+08
-.11333E+08
-.11075E+08
-.11190E+08
-.11187E+08
-.11237E+08
-.11120E+08
-.11129E+08
-.11149E+08
-.11327E+08
-.10934E+08
-.11186E+08
-.11167E+08
-.11144E+08
-.11158E+08
-.11067E+08
-.11255E+08
-.11118E+08
-.11172E+08
-.11018E+08
-.11274E+08
-.11078E+08
-.11199E+08
-.11209E+08
-.11077E+08
-.11203E+08
-.11086E+08
</weights>
</event>
<event>
      7  10001  1.11453E+07  2.98757E+00 -1.00000E+00  2.92788E-01
      21    -1     0     0   502   501  0.000000000E+00  0.000000000E+00  1.491957273E-01  1.491957273E-01  0.000000000E+00  0.00000E+00  9.000E+00
       4    -1     0     0   501     0  0.000000000E+00  0.000000000E+00 -3.390604035E+01  3.390604035E+01  0.000000000E+00  0.00000E+00  9.000E+00
      23     2     1     2     0     0 -7.888356571E-01 -6.701384101E-01 -2.979336049E+01  2.985685195E+01  1.648008442E+00  0.00000E+00  9.000E+00
      11     1     3     3     0     0  4.777772398E-01 -4.218117595E-01 -1.185131411E+01  1.186843893E+01  5.110000000E-04  0.00000E+00  9.000E+00
     -11     1     3     3     0     0 -1.266612897E+00 -2.483266506E-01 -1.794204638E+01  1.798841302E+01  5.110000000E-04  0.00000E+00  9.000E+00
       4     1     1     2   511     0 -1.690464493E-01  4.306123280E-02 -1.112753729E+00  1.126344456E+00  0.000000000E+00  0.00000E+00  9.000E+00
      21     1     1     2   502   511  9.578821063E-01  6.270771773E-01 -2.850730406E+00  3.072039674E+00  5.960464478E-08  0.00000E+00  9.000E+00
#rwgt            1          19   510761.16677101218                3     4883902           0
<weights>
0.11145E+08
0.15474E+08
0.69580E+07
0.12121E+08
0.95380E+07
0.13505E+08
0.72550E+07
0.11328E+08
0.10964E+08
0.10600E+08
0.10744E+08
0.10827E+08
0.11005E+08
0.10692E+08
0.10733E+08
0.11227E+08
0.11224E+08
0.11526E+08
0.11620E+08
0.11612E+08
0.11503E+08
0.11549E+08
0.11678E+08
0.11254E+08
0.11610E+08
0.11533E+08
0.10981E+08
0.11514E+08
0.11298E+08
0.11449E+08
0.11577E+08
0.11086E+08
0.11338E+08
0.11190E+08
0.11114E+08
0.11430E+08
0.10896E+08
0.10602E+08
0.11591E+08
0.11119E+08
0.11172E+08
0.11152E+08
0.11140E+08
0.11637E+08
0.10677E+08
</weights>
</event>
<event>
      7  10001  1.11453E+07  1.57836E+01 -1.00000E+00  1.75075E-01
      21    -1     0     0   502   501  0.000000000E+00  0.000000000E+00  3.281766456E-01  3.281766456E-01  0.000000000E+00  0.00000E+00  9.000E+00
      -3    -1     0     0     0   502  0.000000000E+00  0.000000000E+00 -2.105653385E+02  2.105653385E+02  0.000000000E+00  0.00000E+00  9.000E+00
      23     2     1     2     0     0 -1.644425399E-01 -3.666910147E+00 -1.102723851E+02  1.103396817E+02  1.171823279E+00  0.00000E+00  9.000E+00
      11     1     3     3     0     0  2.273259060E-01 -3.136208288E+00 -9.694518310E+01  9.699616490E+01  5.110000000E-04  0.00000E+00  9.000E+00
     -11     1     3     3     0     0 -3.917684459E-01 -5.307018583E-01 -1.332720198E+01  1.334351677E+01  5.110000000E-04  0.00000E+00  9.000E+00
      -3     1     1     2     0   512 -1.527603310E+00 -9.530395833E-01 -7.896000142E+01  7.898052723E+01  0.000000000E+00  0.00000E+00  9.000E+00
      21     1     1     2   512   501  1.692045850E+00  4.619949730E+00 -2.100477535E+01  2.157330624E+01  1.283923342E-06  0.00000E+00  9.000E+00
#rwgt            2         157   380894.58585489704                3     4898646           0
<weights>
0.11145E+08
0.10429E+08
0.11798E+08
0.12676E+08
0.94528E+07
0.91702E+07
0.13910E+08
0.11007E+08
0.11278E+08
0.11360E+08
0.11391E+08
0.11536E+08
0.10905E+08
0.11385E+08
0.11328E+08
0.13008E+08
0.88440E+07
0.11818E+08
0.98340E+07
0.95836E+07
0.12021E+08
0.10918E+08
0.10905E+08
0.93320E+07
0.13153E+08
0.13094E+08
0.94004E+07
0.99380E+07
0.12205E+08
0.10882E+08
0.10995E+08
0.11309E+08
0.10909E+08
0.11183E+08
0.11120E+08
0.11072E+08
0.11204E+08
0.11377E+08
0.10915E+08
0.11077E+08
0.11195E+08
0.11247E+08
0.11035E+08
0.10900E+08
0.11374E+08
</weights>
</event>
<event>
      7  10001  1.11453E+07  8.94427E-01 -1.00000E+00  6.07649E-01
       2    -1     0     0   501     0  0.000000000E+00  0.000000000E+00  2.444375565E+01  2.444375565E+01  0.000000000E+00  0.00000E+00  9.000E+00
      21    -1     0     0   511   502  0.000000000E+00  0.000000000E+00 -2.150164945E+00  2.150164945E+00  0.000000000E+00  0.00000E+00  9.000E+00
      23     2     1     2     0     0 -7.771084977E-02  1.202849624E+00  2.340913528E+01  2.346520948E+01  1.084230193E+00  0.00000E+00  9.000E+00
      11     1     3     3     0     0 -1.763464968E-02  1.395835517E+00  1.886265086E+01  1.891423446E+01  5.110000000E-04  0.00000E+00  9.000E+00
     -11     1     3     3     0     0 -6.007620009E-02 -1.929858936E-01  4.546484425E+00  4.550975016E+00  5.110000000E-04  0.00000E+00  9.000E+00
      21     1     1     2   501   502 -8.783475404E-02 -7.755923142E-01 -1.992131879E+00  2.139590569E+00  8.502806793E-07  0.00000E+00  9.000E+00
       2     1     1     2   511     0  1.655456038E-01 -4.272573097E-01  8.765873051E-01  9.891205483E-01  0.000000000E+00  0.00000E+00  9.000E+00
#rwgt            2         249   1683142.1965857397                3     4902431           0
<weights>
0.11145E+08
0.10679E+08
0.11464E+08
0.12979E+08
0.91856E+07
0.91702E+07
0.13910E+08
0.11201E+08
0.11086E+08
0.10863E+08
0.10873E+08
0.10974E+08
0.11044E+08
0.10889E+08
0.10881E+08
0.11222E+08
0.11178E+08
0.11410E+08
0.11418E+08
0.11414E+08
0.11389E+08
0.11431E+08
0.11458E+08
0.11296E+08
0.11338E+08
0.11289E+08
0.11135E+08
0.11379E+08
0.11312E+08
0.11403E+08
0.11443E+08
0.11166E+08
0.11213E+08
0.11140E+08
0.11168E+08
0.11237E+08
0.11069E+08
0.11061E+08
0.11157E+08
0.11148E+08
0.11144E+08
0.11172E+08
0.11118E+08
0.11445E+08
0.10866E+08
</weights>
</event>
<event>
      6  10001 -1.11453E+07  8.94427E-01 -1.00000E+00  3.99122E-01
       2    -1     0     0   501     0  0.000000000E+00  0.000000000E+00  5.036075529E+02  5.036075529E+02  0.000000000E+00  0.00000E+00  9.000E+00
      21    -1     0     0   502   501  0.000000000E+00  0.000000000E+00 -5.793035287E-03  5.793035287E-03  0.000000000E+00  0.00000E+00  9.000E+00
      23     2     1     2     0     0  1.519046956E-01  3.012177300E-01  4.960958482E+02  4.960998569E+02  1.965613051E+00  0.00000E+00  9.000E+00
      11     1     3     3     0     0 -3.520860820E-02  3.465939228E-01  4.913270606E+02  4.913271841E+02  5.110000000E-04  0.00000E+00  9.000E+00
     -11     1     3     3     0     0  1.871133038E-01 -4.537619277E-02  4.768787542E+00  4.772672760E+00  5.110000000E-04  0.00000E+00  9.000E+00
       2     1     1     2   502     0 -1.519046956E-01 -3.012177300E-01  7.505911660E+00  7.513489003E+00  0.000000000E+00  0.00000E+00  9.000E+00
#rwgt            1          24  -21134135.401354916                3     4902967           0
<weights>
-.11145E+08
-.11978E+08
-.10090E+08
-.14570E+08
-.80848E+07
-.91634E+07
-.13909E+08
-.11173E+08
-.11118E+08
-.10826E+08
-.10817E+08
-.10963E+08
-.11008E+08
-.10844E+08
-.10827E+08
-.11226E+08
-.11209E+08
-.11459E+08
-.11499E+08
-.11487E+08
-.11436E+08
-.11497E+08
-.11517E+08
-.11406E+08
-.11329E+08
-.11286E+08
-.11342E+08
-.11431E+08
-.11368E+08
-.11475E+08
-.11510E+08
-.11182E+08
-.11217E+08
-.11138E+08
-.11177E+08
-.11210E+08
-.11100E+08
-.11128E+08
-.11088E+08
-.11165E+08
-.11129E+08
-.11184E+08
-.11104E+08
-.11502E+08
-.10817E+08
</weights>
</event>
<event>
      6  10001 -1.11453E+07  8.94427E-01 -1.00000E+00  4.58224E-01
       2    -1     0     0   501     0  0.000000000E+00  0.000000000E+00  1.101412636E+02  1.101412636E+02  0.000000000E+00  0.00000E+00  9.000E+00
      21    -1     0     0   502   501  0.000000000E+00  0.000000000E+00 -9.520562866E-03  9.520562866E-03  0.000000000E+00  0.00000E+00  9.000E+00
      23     2     1     2     0     0 -6.281520738E-01  3.800541255E-01  6.906732430E+01  6.907980290E+01  1.088515389E+00  0.00000E+00  9.000E+00
      11     1     3     3     0     0 -9.485028721E-02  3.401964425E-01  5.650140089E+01  5.650250466E+01  5.110000000E-04  0.00000E+00  9.000E+00
     -11     1     3     3     0     0 -5.333017865E-01  3.985768306E-02  1.256592341E+01  1.257729823E+01  5.110000000E-04  0.00000E+00  9.000E+00
       2     1     1     2   502     0  6.281520738E-01 -3.800541255E-01  4.106441877E+01  4.107098130E+01  0.000000000E+00  0.00000E+00  9.000E+00
#rwgt            1          24  -6605817.0675155586                3     4904616           0
<weights>
-.11145E+08
-.12595E+08
-.95229E+07
-.15316E+08
-.76306E+07
-.91648E+07
-.13909E+08
-.11174E+08
-.11118E+08
-.10829E+08
-.10822E+08
-.10964E+08
-.11011E+08
-.10848E+08
-.10832E+08
-.11225E+08
-.11206E+08
-.11453E+08
-.11494E+08
-.11482E+08
-.11430E+08
-.11491E+08
-.11512E+08
-.11400E+08
-.11327E+08
-.11283E+08
-.11339E+08
-.11425E+08
-.11365E+08
-.11467E+08
-.11503E+08
-.11181E+08
-.11217E+08
-.11139E+08
-.11176E+08
-.11210E+08
-.11100E+08
-.11121E+08
-.11095E+08
-.11164E+08
-.11130E+08
-.11184E+08
-.11105E+08
-.11496E+08
-.10822E+08
</weights>
</event>
<event>
      6  10001 -1.11453E+07  8.94427E-01 -1.00000E+00  3.66470E-01
      -5    -1     0     0     0   502  0.000000000E+00  0.000000000E+00  2.172034334E-02  2.172034334E-02  0.000000000E+00  0.00000E+00  9.000E+00
      21    -1     0     0   502   501  0.000000000E+00  0.000000000E+00 -1.089686952E+02  1.089686952E+02  0.000000000E+00  0.00000E+00  9.000E+00
      23     2     1     2     0     0  8.157238438E-02  9.857948558E-01 -5.162831330E+01  5.166321948E+01  1.620823106E+00  0.00000E+00  9.000E+00
      11     1     3     3     0     0 -6.021669304E-01  1.012359403E-01 -2.983485368E+01  2.984110165E+01  5.110000000E-04  0.00000E+00  9.000E+00
     -11     1     3     3     0     0  6.837393148E-01  8.845589155E-01 -2.179345962E+01  2.182211783E+01  5.110000000E-04  0.00000E+00  9.000E+00
      -5     1     1     2     0   501 -8.157238438E-02 -9.857948558E-01 -5.731866154E+01  5.732719605E+01  0.000000000E+00  0.00000E+00  9.000E+00
#rwgt            1           1  -137181.41867549412                3     4906617           0
<weights>
-.11145E+08
-.12453E+08
-.95350E+07
-.15135E+08
-.76400E+07
-.91702E+07
-.13910E+08
-.11153E+08
-.11137E+08
-.11191E+08
-.11215E+08
-.11082E+08
-.11279E+08
-.11240E+08
-.11233E+08
-.11146E+08
-.11056E+08
-.11060E+08
-.10991E+08
-.10986E+08
-.11072E+08
-.11042E+08
-.10993E+08
-.11096E+08
-.11057E+08
-.11094E+08
-.11139E+08
-.11056E+08
-.11045E+08
-.11021E+08
-.11033E+08
-.11107E+08
-.11151E+08
-.11146E+08
-.11137E+08
-.11201E+08
-.11090E+08
-.10982E+08
-.11372E+08
-.11045E+08
-.11238E+08
-.11101E+08
-.11193E+08
-.11058E+08
-.11211E+08
</weights>
</event>
<event>
      6  10001  1.11453E+07  8.94427E-01 -1.00000E+00  6.07467E-01
      -2    -1     0     0     0   502  0.000000000E+00  0.000000000E+00  6.294486621E-02  6.294486621E-02  0.000000000E+00  0.00000E+00  9.000E+00
      21    -1     0     0   502   501  0.000000000E+00  0.000000000E+00 -1.602182999E+02  1.602182999E+02  0.000000000E+00  0.00000E+00  9.000E+00
      23     2     1     2     0     0 -5.398028631E-01  2.985524640E-01 -1.742690017E+01  1.755145688E+01  1.994058314E+00  0.00000E+00  9.000E+00
      11     1     3     3     0     0  3.125936843E-01  5.077193658E-01 -1.726677944E+00  1.826721312E+00  5.110000000E-04  0.00000E+00  9.000E+00
     -11     1     3     3     0     0 -8.523965474E-01 -2.091669018E-01 -1.570022222E+01  1.572473557E+01  5.110000000E-04  0.00000E+00  9.000E+00
      -2     1     1     2     0   501  5.398028631E-01 -2.985524640E-01 -1.427284549E+02  1.427297879E+02  0.000000000E+00  0.00000E+00  9.000E+00
#rwgt            1           7   1436737.6008844830                3     4908758           0
<weights>
0.11145E+08
0.11232E+08
0.10998E+08
0.12260E+08
0.98941E+07
0.10187E+08
0.12349E+08
0.11158E+08
0.11130E+08
0.11196E+08
0.11241E+08
0.11053E+08
0.11327E+08
0.11293E+08
0.11268E+08
0.11158E+08
0.10994E+08
0.11020E+08
0.10913E+08
0.10907E+08
0.11036E+08
0.11006E+08
0.10904E+08
0.11089E+08
0.10991E+08
0.11035E+08
0.11165E+08
0.11023E+08
0.10997E+08
0.10972E+08
0.10986E+08
0.11091E+08
0.11152E+08
0.11135E+08
0.11146E+08
0.11225E+08
0.11066E+08
0.10889E+08
0.11478E+08
0.10993E+08
0.11286E+08
0.11087E+08
0.11208E+08
0.11025E+08
0.11231E+08
</weights>
</event>
<event>
      6  10001 -1.11453E+07  8.94427E-01 -1.00000E+00  4.81218E-01
      21    -1     0     0   502   501  0.000000000E+00  0.000000000E+00  1.908417574E-03  1.908417574E-03  0.000000000E+00  0.00000E+00  9.000E+00
       2    -1     0     0   501     0  0.000000000E+00  0.000000000E+00 -6.308165514E+02  6.308165514E+02  0.000000000E+00  0.00000E+00  9.000E+00
      23     2     1     2     0     0 -4.010851020E-01  2.883101738E-01 -5.850424935E+02  5.850436451E+02  1.050479382E+00  0.00000E+00  9.000E+00
      11     1     3     3     0     0  2.114162309E-02 -2.066995319E-01 -2.797228407E+01  2.797305575E+01  5.110000000E-04  0.00000E+00  9.000E+00
     -11     1     3     3     0     0 -4.222267251E-01  4.950097057E-01 -5.570702094E+02  5.570705894E+02  5.110000000E-04  0.00000E+00  9.000E+00
       2     1     1     2   502     0  4.010851020E-01 -2.883101738E-01 -4.577214947E+01  4.577481468E+01  0.000000000E+00  0.00000E+00  9.000E+00
#rwgt            1          17  -66671926.529259101                3     4993114           0
<weights>
-.11145E+08
-.11388E+08
-.10762E+08
-.13841E+08
-.86234E+07
-.91702E+07
-.13910E+08
-.11133E+08
-.11158E+08
-.11163E+08
-.11144E+08
-.10945E+08
-.11369E+08
-.11154E+08
-.11148E+08
-.11147E+08
-.11131E+08
-.11544E+08
-.10598E+08
-.10515E+08
-.11595E+08
-.11114E+08
-.11172E+08
-.10980E+08
-.11278E+08
-.11468E+08
-.10949E+08
-.10636E+08
-.11729E+08
-.11055E+08
-.11203E+08
-.11066E+08
-.11222E+08
-.11646E+08
-.10544E+08
-.11073E+08
-.11212E+08
-.11131E+08
-.11168E+08
-.11292E+08
-.11015E+08
-.11124E+08
-.11167E+08
-.11136E+08
-.11155E+08
</weights>
</event>
<event>
      7  10001  1.11453E+07  1.94188E+00 -1.00000E+00  3.59536E-01
       2    -1     0     0   501     0  0.000000000E+00  0.000000000E+00  8.860901571E+02  8.860901571E+02  0.000000000E+00  0.00000E+00  9.000E+00
      21    -1     0     0   502   501  0.000000000E+00  0.000000000E+00 -2.610384421E-02  2.610384421E-02  0.000000000E+00  0.00000E+00  9.000E+00
      23     2     1     2     0     0 -5.654831061E-01 -1.372809966E+00  8.281369268E+02  8.281410111E+02  2.135512712E+00  0.00000E+00  9.000E+00
      11     1     3     3     0     0 -1.357489227E+00 -1.011701872E+00  4.767110861E+02  4.767140924E+02  5.110000000E-04  0.00000E+00  9.000E+00
     -11     1     3     3     0     0  7.920061214E-01 -3.611080949E-01  3.514258407E+02  3.514269187E+02  5.110000000E-04  0.00000E+00  9.000E+00
       2     1     1     2   511     0  6.794923920E-01  1.397922696E+00  5.769008661E+01  5.771102140E+01  0.000000000E+00  0.00000E+00  9.000E+00
      21     1     1     2   502   511 -1.140092860E-01 -2.511272960E-02  2.370398740E-01  2.642284397E-01  2.433587054E-07  0.00000E+00  9.000E+00
#rwgt            2         248   43247066.469755322                3     4997527           0
<weights>
0.11145E+08
0.10493E+08
0.11665E+08
0.12753E+08
0.93467E+07
0.91702E+07
0.13910E+08
0.11164E+08
0.11129E+08
0.10813E+08
0.10797E+08
0.10958E+08
0.10996E+08
0.10828E+08
0.10808E+08
0.11227E+08
0.11220E+08
0.11477E+08
0.11526E+08
0.11512E+08
0.11453E+08
0.11521E+08
0.11538E+08
0.11441E+08
0.11328E+08
0.11289E+08
0.11406E+08
0.11451E+08
0.11387E+08
0.11500E+08
0.11533E+08
0.11189E+08
0.11218E+08
0.11136E+08
0.11181E+08
0.11202E+08
0.11109E+08
0.11153E+08
0.11063E+08
0.11172E+08
0.11123E+08
0.11188E+08
0.11100E+08
0.11522E+08
0.10800E+08
</weights>
</event>
<event>
      7  10001  1.11453E+07  9.83161E-01 -1.00000E+00  5.69191E-01
      21    -1     0     0   502   501  0.000000000E+00  0.000000000E+00  1.729191976E+01  1.729191976E+01  0.000000000E+00  0.00000E+00  9.000E+00
      -2    -1     0     0     0   502  0.000000000E+00  0.000000000E+00 -1.741351684E-01  1.741351684E-01  0.000000000E+00  0.00000E+00  9.000E+00
      23     2     1     2     0     0  1.898379099E-01 -2.611430233E-01  5.556867979E+00  5.877733424E+00  1.888050412E+00  0.00000E+00  9.000E+00
      11     1     3     3     0     0 -1.571020317E-01  7.182223923E-02  5.352422632E+00  5.355209405E+00  5.110000000E-04  0.00000E+00  9.000E+00
     -11     1     3     3     0     0  3.469399416E-01 -3.329652625E-01  2.044453469E-01  5.225240187E-01  5.110000000E-04  0.00000E+00  9.000E+00
      -2     1     1     2     0   512  2.357398306E-01  2.532612287E-01  3.791723656E+00  3.807477223E+00  0.000000000E+00  0.00000E+00  9.000E+00
      21     1     1     2   512   501 -4.255777405E-01  7.881794622E-03  7.769192955E+00  7.780844279E+00  0.000000000E+00  0.00000E+00  9.000E+00
#rwgt            1          14   595888.19860285346                3     4997911           0
<weights>
0.11145E+08
0.17105E+08
0.54225E+07
0.12109E+08
0.97245E+07
0.14900E+08
0.51140E+07
0.10637E+08
0.11790E+08
0.10758E+08
0.10658E+08
0.10973E+08
0.10863E+08
0.10745E+08
0.10680E+08
0.11144E+08
0.11428E+08
0.11627E+08
0.11617E+08
0.11583E+08
0.11606E+08
0.11684E+08
0.11641E+08
0.11696E+08
0.11221E+08
0.11412E+08
0.11375E+08
0.11645E+08
0.11396E+08
0.11694E+08
0.11662E+08
0.11163E+08
0.11291E+08
0.11134E+08
0.11207E+08
0.10793E+08
0.11567E+08
0.11343E+08
0.10884E+08
0.11205E+08
0.11088E+08
0.11266E+08
0.11017E+08
0.11639E+08
0.10700E+08
</weights>
</event>
<event>
      7  10001  1.11453E+07  2.78979E+00 -1.00000E+00  3.01649E-01
      21    -1     0     0   511   502  0.000000000E+00  0.000000000E+00  7.666296510E-01  7.666296510E-01  0.000000000E+00  0.00000E+00  9.000E+00
       1    -1     0     0   501     0  0.000000000E+00  0.000000000E+00 -2.673790105E+02  2.673790105E+02  0.000000000E+00  0.00000E+00  9.000E+00
      23     2     1     2     0     0  3.002503442E+00 -4.785459649E+00 -1.858795658E+02  1.859681876E+02  1.018894564E+00  0.00000E+00  9.000E+00
      11     1     3     3     0     0  8.970687429E-02  1.330036963E-02 -1.242537017E+00  1.245842174E+00  5.110000000E-04  0.00000E+00  9.000E+00
     -11     1     3     3     0     0  2.912796568E+00 -4.798760019E+00 -1.846370288E+02  1.847223454E+02  5.110000000E-04  0.00000E+00  9.000E+00
      21     1     1     2   501   502 -3.711800993E+00  7.483576600E+00 -2.468277302E+01  2.605802505E+01  4.523674479E-06  0.00000E+00  9.000E+00
       1     1     1     2   511     0  7.092975508E-01 -2.698116951E+00 -5.605004198E+01  5.611942751E+01  0.000000000E+00  0.00000E+00  9.000E+00
#rwgt            2         187   760138.73027014546                3     5023106           0
<weights>
0.11145E+08
0.10163E+08
0.12178E+08
0.12351E+08
0.97579E+07
0.91702E+07
0.13910E+08
0.11239E+08
0.11055E+08
0.11157E+08
0.11256E+08
0.11516E+08
0.10744E+08
0.11189E+08
0.11200E+08
0.10240E+08
0.12246E+08
0.10377E+08
0.11990E+08
0.12127E+08
0.10275E+08
0.11166E+08
0.11003E+08
0.11459E+08
0.10739E+08
0.10672E+08
0.11406E+08
0.11750E+08
0.10266E+08
0.11227E+08
0.11008E+08
0.11063E+08
0.11212E+08
0.10378E+08
0.11979E+08
0.11158E+08
0.11125E+08
0.11176E+08
0.11122E+08
0.11288E+08
0.11009E+08
0.11202E+08
0.11083E+08
0.11087E+08
0.11201E+08
</weights>
</event>
<event>
      7  10001  1.11453E+07  1.26933E+00 -1.00000E+00  4.78237E-01
      21    -1     0     0   502   511  0.000000000E+00  0.000000000E+00  1.807224754E+01  1.807224754E+01  0.000000000E+00  0.00000E+00  9.000E+00
       1    -1     0     0   501     0  0.000000000E+00  0.000000000E+00 -3.426377451E+00  3.426377451E+00  0.000000000E+00  0.00000E+00  9.000E+00
      23     2     1     2     0     0 -2.685147673E+00  8.397287510E-01 -7.813835928E-01  4.800261157E+00  3.810089822E+00  0.00000E+00  9.000E+00
      11     1     3     3     0     0  7.302538727E-01  1.063143147E+00 -4.299785872E-01  1.359568283E+00  5.110000000E-04  0.00000E+00  9.000E+00
     -11     1     3     3     0     0 -3.415401546E+00 -2.234143959E-01 -3.514050056E-01  3.440692874E+00  5.110000000E-04  0.00000E+00  9.000E+00
       1     1     1     2   502     0  3.491950564E+00  1.402001314E-01  4.500149016E+00  5.697781673E+00  0.000000000E+00  0.00000E+00  9.000E+00
      21     1     1     2   501   511 -8.068028911E-01 -9.799288824E-01  1.092710466E+01  1.100058216E+01  1.192092896E-07  0.00000E+00  9.000E+00
#rwgt            1          16   296911.04419550486                3     5023623           0
<weights>
0.11145E+08
0.12224E+08
0.10016E+08
0.12484E+08
0.96304E+07
0.10801E+08
0.11406E+08
0.11041E+08
0.11247E+08
0.10868E+08
0.10826E+08
0.10940E+08
0.11042E+08
0.10870E+08
0.10847E+08
0.11228E+08
0.11183E+08
0.11557E+08
0.11295E+08
0.11257E+08
0.11555E+08
0.11467E+08
0.11496E+08
0.11332E+08
0.11343E+08
0.11452E+08
0.11011E+08
0.11364E+08
0.11371E+08
0.11447E+08
0.11485E+08
0.11155E+08
0.11235E+08
0.11261E+08
0.11028E+08
0.10995E+08
0.11321E+08
0.11139E+08
0.11062E+08
0.11146E+08
0.11140E+08
0.11229E+08
0.11057E+08
0.11471E+08
0.10847E+08
</weights>
</event>
<event>
      7  10001  1.11453E+07  8.94427E-01 -1.00000E+00  6.07649E-01
      21    -1     0     0   511   502  0.000000000E+00  0.000000000E+00  6.035131603E-01  6.035131603E-01  0.000000000E+00  0.00000E+00  9.000E+00
       1    -1     0     0   501     0  0.000000000E+00  0.000000000E+00 -4.823393953E+01  4.823393953E+01  0.000000000E+00  0.00000E+00  9.000E+00
      23     2     1     2     0     0  2.128312290E-01 -3.884701772E-01 -4.757545459E+01  4.762563375E+01  2.140304867E+00  0.00000E+00  9.000E+00
      11     1     3     3     0     0 -6.069246137E-01  4.716757899E-01 -9.290066280E+00  9.321811373E+00  5.110000000E-04  0.00000E+00  9.000E+00
     -11     1     3     3     0     0  8.197558427E-01 -8.601459671E-01 -3.828538831E+01  3.830382238E+01  5.110000000E-04  0.00000E+00  9.000E+00
      21     1     1     2   501   502 -2.978624557E-01  5.411383317E-01  3.922150028E-01  7.317003109E-01  2.027461652E-07  0.00000E+00  9.000E+00
       1     1     1     2   511     0  8.503122672E-02 -1.526681545E-01 -4.471867823E-01  4.801186241E-01  0.000000000E+00  0.00000E+00  9.000E+00
#rwgt            2         187   769632.49035562039                3     5040667           0
<weights>
0.11145E+08
0.10813E+08
0.11324E+08
0.13142E+08
0.90738E+07
0.91702E+07
0.13910E+08
0.11216E+08
0.11074E+08
0.11070E+08
0.11085E+08
0.11014E+08
0.11166E+08
0.11096E+08
0.11104E+08
0.10835E+08
0.11457E+08
0.11095E+08
0.11209E+08
0.11187E+08
0.11088E+08
0.11189E+08
0.11172E+08
0.11201E+08
0.11133E+08
0.11211E+08
0.11086E+08
0.11140E+08
0.11066E+08
0.11156E+08
0.11176E+08
0.11100E+08
0.11200E+08
0.11072E+08
0.11160E+08
0.11065E+08
0.11219E+08
0.10984E+08
0.11317E+08
0.11132E+08
0.11148E+08
0.11222E+08
0.11063E+08
0.11199E+08
0.11088E+08
</weights>
</event>
<event>
      6  10001  1.11453E+07  8.94427E-01 -1.00000E+00  6.03913E-01
       2    -1     0     0   501     0  0.000000000E+00  0.000000000E+00  5.679918567E+02  5.679918567E+02  0.000000000E+00  0.00000E+00  9.000E+00
      -2    -1     0     0     0   502  0.000000000E+00  0.000000000E+00 -3.952087677E-02  3.952087677E-02  0.000000000E+00  0.00000E+00  9.000E+00
      23     2     1     2     0     0 -8.661794139E-01  2.288451151E-01  5.246858563E+02  5.247556235E+02  8.509641696E+00  0.00000E+00  9.000E+00
      11     1     3     3     0     0  1.995217653E+00  2.652108433E+00  1.037537638E+02  1.038068306E+02  5.110000000E-04  0.00000E+00  9.000E+00
     -11     1     3     3     0     0 -2.861397067E+00 -2.423263318E+00  4.209320925E+02  4.209487929E+02  5.110000000E-04  0.00000E+00  9.000E+00
      21     1     1     2   501   502  8.661794139E-01 -2.288451151E-01  4.326647951E+01  4.327575402E+01  4.768371582E-07  0.00000E+00  9.000E+00
#rwgt            1          23   3984472.2485333062                3     5041963           0
<weights>
0.11145E+08
0.12710E+08
0.95873E+07
0.11432E+08
0.10536E+08
0.11989E+08
0.95829E+07
0.10773E+08
0.11673E+08
0.10784E+08
0.10714E+08
0.10972E+08
0.10914E+08
0.10782E+08
0.10732E+08
0.11172E+08
0.11351E+08
0.11561E+08
0.11591E+08
0.11560E+08
0.11540E+08
0.11619E+08
0.11595E+08
0.11634E+08
0.11239E+08
0.11351E+08
0.11492E+08
0.11565E+08
0.11396E+08
0.11618E+08
0.11607E+08
0.11171E+08
0.11265E+08
0.11131E+08
0.11201E+08
0.10936E+08
0.11414E+08
0.11271E+08
0.10955E+08
0.11190E+08
0.11103E+08
0.11235E+08
0.11051E+08
0.11590E+08
0.10742E+08
</weights>
</event>
<event>
      7  10001  1.11453E+07  3.34596E+00 -1.00000E+00  2.79277E-01
      21    -1     0     0   511   501  0.000000000E+00  0.000000000E+00  1.471985647E+01  1.471985647E+01  0.000000000E+00  0.00000E+00  9.000E+00
       1    -1     0     0   501     0  0.000000000E+00  0.000000000E+00 -2.469683681E+01  2.469683681E+01  0.000000000E+00  0.00000E+00  9.000E+00
      23     2     1     2     0     0  8.184023637E-01  1.941733988E+00 -1.877338088E+01  1.901746311E+01  2.187226581E+00  0.00000E+00  9.000E+00
      11     1     3     3     0     0 -1.254931008E-01 -4.421213871E-01 -2.263783941E+00  2.309964899E+00  5.110000000E-04  0.00000E+00  9.000E+00
     -11     1     3     3     0     0  9.438954645E-01  2.383855375E+00 -1.650959694E+01  1.670749821E+01  5.110000000E-04  0.00000E+00  9.000E+00
       1     1     1     2   502     0  2.296008383E+00 -3.164802092E+00 -4.917830958E+00  6.282729352E+00  0.000000000E+00  0.00000E+00  9.000E+00
      21     1     1     2   511   502 -3.114410747E+00  1.223068104E+00  1.371423149E+01  1.411650082E+01  2.384185791E-07  0.00000E+00  9.000E+00
#rwgt            1          16   560703.33212611720                3     5045828           0
<weights>
0.11145E+08
0.12512E+08
0.96643E+07
0.12633E+08
0.94639E+07
0.10930E+08
0.11209E+08
0.11187E+08
0.11099E+08
0.10959E+08
0.10954E+08
0.10931E+08
0.11139E+08
0.10971E+08
0.10978E+08
0.11016E+08
0.11294E+08
0.11356E+08
0.11193E+08
0.11144E+08
0.11360E+08
0.11310E+08
0.11357E+08
0.11222E+08
0.11292E+08
0.11404E+08
0.10997E+08
0.11179E+08
0.11255E+08
0.11267E+08
0.11328E+08
0.11110E+08
0.11231E+08
0.11225E+08
0.11001E+08
0.11002E+08
0.11293E+08
0.10981E+08
0.11255E+08
0.11128E+08
0.11151E+08
0.11243E+08
0.11041E+08
0.11336E+08
0.10965E+08
</weights>
</event>
<event>
      7  10001  1.11453E+07  8.94427E-01 -1.00000E+00  6.07649E-01
       1    -1     0     0   501     0  0.000000000E+00  0.000000000E+00  8.530629556E+00  8.530629556E+00  0.000000000E+00  0.00000E+00  9.000E+00
      -2    -1     0     0     0   501  0.000000000E+00  0.000000000E+00 -5.536682832E-01  5.536682832E-01  0.000000000E+00  0.00000E+00  9.000E+00
      23     2     1     2     0     0 -6.647399074E-01 -9.861179119E-02  8.090535878E-01  1.611706962E+00  1.221240432E+00  0.00000E+00  9.000E+00
      11     1     3     3     0     0 -6.344338754E-02  4.940542395E-01  9.748749983E-02  5.075615516E-01  5.110000000E-04  0.00000E+00  9.000E+00
     -11     1     3     3     0     0 -6.012965198E-01 -5.926660306E-01  7.115660880E-01  1.104145410E+00  5.110000000E-04  0.00000E+00  9.000E+00
       1     1     1     2   502     0  9.298914304E-02 -5.732613216E-01  5.896784425E+00  5.925313669E+00  0.000000000E+00  0.00000E+00  9.000E+00
      -2     1     1     2     0   502  5.717507643E-01  6.718731128E-01  1.271123261E+00  1.547277208E+00  0.000000000E+00  0.00000E+00  9.000E+00
#rwgt            2         208   7321.7675532450003                3     5050212           0
<weights>
0.11145E+08
0.11536E+08
0.10553E+08
0.14021E+08
0.84558E+07
0.91702E+07
0.13910E+08
0.11076E+08
0.11228E+08
0.10834E+08
0.10815E+08
0.10973E+08
0.10994E+08
0.10849E+08
0.10827E+08
0.11198E+08
0.11250E+08
0.11472E+08
0.11466E+08
0.11455E+08
0.11451E+08
0.11500E+08
0.11508E+08
0.11391E+08
0.11315E+08
0.11334E+08
0.11156E+08
0.11454E+08
0.11327E+08
0.11481E+08
0.11502E+08
0.11164E+08
0.11236E+08
0.11142E+08
0.11175E+08
0.11111E+08
0.11206E+08
0.11135E+08
0.11083E+08
0.11164E+08
0.11128E+08
0.11200E+08
0.11087E+08
0.11498E+08
0.10821E+08
</weights>
</event>
<event>
      7  10001  1.11453E+07  1.30229E+00 -1.00000E+00  4.70064E-01
       1    -1     0     0   501     0  0.000000000E+00  0.000000000E+00  1.456592666E+01  1.456592666E+01  0.000000000E+00  0.00000E+00  9.000E+00
       2    -1     0     0   502     0  0.000000000E+00  0.000000000E+00 -2.211398866E+00  2.211398866E+00  0.000000000E+00  0.00000E+00  9.000E+00
      23     2     1     2     0     0 -6.430416514E-02 -8.387555056E-01  1.357736455E+01  1.364230242E+01  1.029534566E+00  0.00000E+00  9.000E+00
      11     1     3     3     0     0 -4.432264607E-01 -4.226152054E-01  1.019972156E+01  1.021809050E+01  5.110000000E-04  0.00000E+00  9.000E+00
     -11     1     3     3     0     0  3.789222956E-01 -4.161403002E-01  3.377642986E+00  3.424211918E+00  5.110000000E-04  0.00000E+00  9.000E+00
       1     1     1     2   502     0  8.521966248E-01 -1.981507240E-01  4.747662694E-01  9.954425184E-01  0.000000000E+00  0.00000E+00  9.000E+00
       2     1     1     2   501     0 -7.878924597E-01  1.036906230E+00 -1.697603024E+00  2.139580586E+00  0.000000000E+00  0.00000E+00  9.000E+00
#rwgt            1          22   873507.56337554834                3     5050843           0
<weights>
0.11145E+08
0.12999E+08
0.91464E+07
0.13301E+08
0.88619E+07
0.10814E+08
0.11387E+08
0.11171E+08
0.11119E+08
0.10788E+08
0.10761E+08
0.10946E+08
0.10980E+08
0.10800E+08
0.10774E+08
0.11235E+08
0.11233E+08
0.11516E+08
0.11553E+08
0.11542E+08
0.11488E+08
0.11563E+08
0.11574E+08
0.11455E+08
0.11344E+08
0.11309E+08
0.11335E+08
0.11491E+08
0.11413E+08
0.11546E+08
0.11575E+08
0.11202E+08
0.11217E+08
0.11132E+08
0.11189E+08
0.11206E+08
0.11105E+08
0.11194E+08
0.11021E+08
0.11183E+08
0.11114E+08
0.11192E+08
0.11097E+08
0.11558E+08
0.10768E+08
</weights>
</event>
<event>
      6  10001  1.11453E+07  8.94427E-01 -1.00000E+00  5.96561E-01
      -2    -1     0     0     0   502  0.000000000E+00  0.000000000E+00  6.202664234E-02  6.202664234E-02  0.000000000E+00  0.00000E+00  9.000E+00
      21    -1     0     0   502   501  0.000000000E+00  0.000000000E+00 -3.401810659E+01  3.401810659E+01  0.000000000E+00  0.00000E+00  9.000E+00
      23     2     1     2     0     0 -2.532937300E-01 -6.786325061E-02 -6.076335852E+00  6.199155955E+00  1.199547426E+00  0.00000E+00  9.000E+00
      11     1     3     3     0     0  9.206130749E-02 -2.398394215E-01 -5.497676826E+00  5.503675951E+00  5.110000000E-04  0.00000E+00  9.000E+00
     -11     1     3     3     0     0 -3.453550375E-01  1.719761709E-01 -5.786590261E-01  6.954800033E-01  5.110000000E-04  0.00000E+00  9.000E+00
      -2     1     1     2     0   501  2.532937300E-01  6.786325061E-02 -2.787974410E+01  2.788097728E+01  0.000000000E+00  0.00000E+00  9.000E+00
#rwgt            1           7   1679839.3777355733                3     5056409           0
<weights>
0.11145E+08
0.12682E+08
0.94937E+07
0.12464E+08
0.95757E+07
0.11183E+08
0.10821E+08
0.11333E+08
0.10957E+08
0.10548E+08
0.10686E+08
0.10829E+08
0.10938E+08
0.10636E+08
0.10672E+08
0.11261E+08
0.11218E+08
0.11587E+08
0.11691E+08
0.11685E+08
0.11554E+08
0.11619E+08
0.11757E+08
0.11276E+08
0.11667E+08
0.11543E+08
0.10966E+08
0.11558E+08
0.11355E+08
0.11522E+08
0.11650E+08
0.11106E+08
0.11337E+08
0.11171E+08
0.11140E+08
0.11419E+08
0.10905E+08
0.10641E+08
0.11501E+08
0.11141E+08
0.11149E+08
0.11183E+08
0.11106E+08
0.11701E+08
0.10621E+08
</weights>
</event>
<event>
      6  10001 -1.11453E+07  8.94427E-01 -1.00000E+00  4.45717E-01
      21    -1     0     0   502   501  0.000000000E+00  0.000000000E+00  1.262617808E-02  1.262617808E-02  0.000000000E+00  0.00000E+00  9.000E+00
       2    -1     0     0   501     0  0.000000000E+00  0.000000000E+00 -1.369180927E+02  1.369180927E+02  0.000000000E+00  0.00000E+00  9.000E+00
      23     2     1     2     0     0 -5.798597936E-01  2.014411975E-01 -1.240564230E+02  1.240670205E+02  1.500892408E+00  0.00000E+00  9.000E+00
      11     1     3     3     0     0 -7.871940760E-01 -1.608484656E-01 -1.127986401E+02  1.128015016E+02  5.110000000E-04  0.00000E+00  9.000E+00
     -11     1     3     3     0     0  2.073342824E-01  3.622896631E-01 -1.125778294E+01  1.126551899E+01  5.110000000E-04  0.00000E+00  9.000E+00
       2     1     1     2   502     0  5.798597936E-01 -2.014411975E-01 -1.284904351E+01  1.286369835E+01  0.000000000E+00  0.00000E+00  9.000E+00
#rwgt            1          17  -14321882.968338272                3     5104362           0
<weights>
-.11145E+08
-.12690E+08
-.94105E+07
-.15423E+08
-.75402E+07
-.91702E+07
-.13910E+08
-.11139E+08
-.11150E+08
-.11167E+08
-.11172E+08
-.11141E+08
-.11153E+08
-.11174E+08
-.11173E+08
-.11240E+08
-.10975E+08
-.11139E+08
-.11072E+08
-.11069E+08
-.11139E+08
-.11107E+08
-.11119E+08
-.11215E+08
-.11023E+08
-.11080E+08
-.11171E+08
-.11137E+08
-.11064E+08
-.11116E+08
-.11117E+08
-.11100E+08
-.11178E+08
-.11141E+08
-.11141E+08
-.11140E+08
-.11145E+08
-.11155E+08
-.11139E+08
-.11124E+08
-.11159E+08
-.11182E+08
-.11106E+08
-.11115E+08
-.11172E+08
</weights>
</event>
<event>
      6  10001 -1.11453E+07  8.94427E-01 -1.00000E+00  1.47834E-01
      -2    -1     0     0     0   502  0.000000000E+00  0.000000000E+00  2.836730098E+01  2.836730098E+01  0.000000000E+00  0.00000E+00  9.000E+00
      21    -1     0     0   502   501  0.000000000E+00  0.000000000E+00 -2.328493666E-02  2.328493666E-02  0.000000000E+00  0.00000E+00  9.000E+00
      23     2     1     2     0     0  1.459613276E-01  4.740700645E-01  2.090418545E+01  2.093423786E+01  1.005633220E+00  0.00000E+00  9.000E+00
      11     1     3     3     0     0  3.101570686E-01  5.548884953E-01  6.989266123E+00  7.018115120E+00  5.110000000E-04  0.00000E+00  9.000E+00
     -11     1     3     3     0     0 -1.641957409E-01 -8.081843080E-02  1.391491933E+01  1.391612273E+01  5.110000000E-04  0.00000E+00  9.000E+00
      -2     1     1     2     0   501 -1.459613276E-01 -4.740700645E-01  7.439830596E+00  7.456348063E+00  0.000000000E+00  0.00000E+00  9.000E+00
#rwgt            1           7  -13661678.161405925                3     5104902           0
<weights>
-.11145E+08
-.13007E+08
-.91492E+07
-.15823E+08
-.73313E+07
-.91617E+07
-.13909E+08
-.11171E+08
-.11121E+08
-.10823E+08
-.10813E+08
-.10962E+08
-.11006E+08
-.10840E+08
-.10823E+08
-.11226E+08
-.11211E+08
-.11463E+08
-.11505E+08
-.11493E+08
-.11439E+08
-.11502E+08
-.11522E+08
-.11413E+08
-.11328E+08
-.11287E+08
-.11356E+08
-.11435E+08
-.11372E+08
-.11480E+08
-.11515E+08
-.11184E+08
-.11217E+08
-.11138E+08
-.11178E+08
-.11208E+08
-.11102E+08
-.11133E+08
-.11083E+08
-.11167E+08
-.11127E+08
-.11185E+08
-.11103E+08
-.11506E+08
-.10813E+08
</weights>
</event>
<event>
      7  10001  1.11453E+07  1.56036E+00 -1.00000E+00  4.07211E-01
      21    -1     0     0   511   502  0.000000000E+00  0.000000000E+00  2.643168699E+00  2.643168699E+00  0.000000000E+00  0.00000E+00  9.000E+00
       4    -1     0     0   501     0  0.000000000E+00  0.000000000E+00 -4.540776609E+00  4.540776609E+00  0.000000000E+00  0.00000E+00  9.000E+00
      23     2     1     2     0     0  8.743658614E-01  2.291299093E+00 -1.885644898E+00  3.412148416E+00  1.439629445E+00  0.00000E+00  9.000E+00
      11     1     3     3     0     0  8.014561750E-01  1.797585388E+00 -6.389564768E-01  2.069277862E+00  5.110000000E-04  0.00000E+00  9.000E+00
     -11     1     3     3     0     0  7.290968637E-02  4.937137046E-01 -1.246688421E+00  1.342870554E+00  5.110000000E-04  0.00000E+00  9.000E+00
      21     1     1     2   501   502  2.604716347E-01 -1.220384113E+00 -1.260274423E+00  1.773548555E+00  4.214684851E-08  0.00000E+00  9.000E+00
       4     1     1     2   511     0 -1.134837496E+00 -1.070914980E+00  1.248311411E+00  1.998248337E+00  0.000000000E+00  0.00000E+00  9.000E+00
#rwgt            1           4   98906.794412881020                3     5106817           0
<weights>
0.11125E+08
0.13490E+08
0.91993E+07
0.12673E+08
0.91506E+07
0.11474E+08
0.10760E+08
0.11193E+08
0.11053E+08
0.10756E+08
0.10744E+08
0.10906E+08
0.10982E+08
0.10771E+08
0.10755E+08
0.11215E+08
0.11218E+08
0.11505E+08
0.11510E+08
0.11508E+08
0.11474E+08
0.11536E+08
0.11562E+08
0.11334E+08
0.11398E+08
0.11378E+08
0.11046E+08
0.11490E+08
0.11350E+08
0.11511E+08
0.11549E+08
0.11173E+08
0.11203E+08
0.11108E+08
0.11170E+08
0.11245E+08
0.11023E+08
0.11101E+08
0.11035E+08
0.11157E+08
0.11099E+08
0.11155E+08
0.11094E+08
0.11540E+08
0.10744E+08
</weights>
</event>
<event>
      6  10001 -1.11453E+07  8.94427E-01 -1.00000E+00  6.06660E-01
      21    -1     0     0   502   501  0.000000000E+00  0.000000000E+00  2.547239157E-01  2.547239157E-01  0.000000000E+00  0.00000E+00  9.000E+00
      -5    -1     0     0     0   502  0.000000000E+00  0.000000000E+00 -9.623692132E+00  9.623692132E+00  0.000000000E+00  0.00000E+00  9.000E+00
      23     2     1     2     0     0 -2.350138841E-01 -1.742246302E-01 -9.293478679E+00  9.576282935E+00  2.291476195E+00  0.00000E+00  9.000E+00
      11     1     3     3     0     0  1.436283194E-01 -9.735686995E-01 -7.621446288E+00  7.684719181E+00  5.110000000E-04  0.00000E+00  9.000E+00
     -11     1     3     3     0     0 -3.786422035E-01  7.993440692E-01 -1.672032390E+00  1.891563754E+00  5.110000000E-04  0.00000E+00  9.000E+00
      -5     1     1     2     0   501  2.350138841E-01  1.742246302E-01 -7.548953759E-02  3.021331127E-01  0.000000000E+00  0.00000E+00  9.000E+00
#rwgt            1          11  -116418.60281713525                3     5107633           0
<weights>
-.11145E+08
-.66944E+07
-.14448E+08
-.13663E+08
-.88495E+07
-.58508E+07
-.19005E+08
-.11194E+08
-.11097E+08
-.11036E+08
-.11085E+08
-.11049E+08
-.11155E+08
-.11078E+08
-.11088E+08
-.11188E+08
-.11085E+08
-.11197E+08
-.11184E+08
-.11180E+08
-.11194E+08
-.11189E+08
-.11210E+08
-.11135E+08
-.11225E+08
-.11170E+08
-.11111E+08
-.11159E+08
-.11158E+08
-.11155E+08
-.11196E+08
-.11115E+08
-.11191E+08
-.11153E+08
-.11136E+08
-.11224E+08
-.11074E+08
-.10938E+08
-.11350E+08
-.11090E+08
-.11195E+08
-.11145E+08
-.11146E+08
-.11221E+08
-.11066E+08
</weights>
</event>
<event>
      7  10001  1.11453E+07  8.11461E+00 -1.00000E+00  2.06179E-01
      21    -1     0     0   502   501  0.000000000E+00  0.000000000E+00  4.532772982E+00  4.532772982E+00  0.000000000E+00  0.00000E+00  9.000E+00
       4    -1     0     0   501     0  0.000000000E+00  0.000000000E+00 -5.260429525E+00  5.260429525E+00  0.000000000E+00  0.00000E+00  9.000E+00
      23     2     1     2     0     0  3.618252575E-02 -2.232618867E-01 -4.656029766E+00  4.773176050E+00  1.026372923E+00  0.00000E+00  9.000E+00
      11     1     3     3     0     0 -4.254495920E-01 -2.101482386E-01 -1.269197162E+00  1.355002337E+00  5.110000000E-04  0.00000E+00  9.000E+00
     -11     1     3     3     0     0  4.616321177E-01 -1.311364817E-02 -3.386832604E+00  3.418173713E+00  5.110000000E-04  0.00000E+00  9.000E+00
       4     1     1     2   511     0  6.272952115E-01 -2.045114379E-03 -3.269577352E-01  7.073929780E-01  0.000000000E+00  0.00000E+00  9.000E+00
      21     1     1     2   502   511 -6.634777372E-01  2.253070011E-01  4.255330959E+00  4.312633479E+00  8.616943535E-07  0.00000E+00  9.000E+00
#rwgt            2         195   171469.53834544236                3     5110357           0
<weights>
0.11145E+08
0.11210E+08
0.10809E+08
0.13624E+08
0.86611E+07
0.91702E+07
0.13910E+08
0.11218E+08
0.11069E+08
0.10820E+08
0.10832E+08
0.10945E+08
0.11037E+08
0.10845E+08
0.10840E+08
0.11223E+08
0.11208E+08
0.11454E+08
0.11465E+08
0.11463E+08
0.11430E+08
0.11476E+08
0.11513E+08
0.11294E+08
0.11396E+08
0.11369E+08
0.11057E+08
0.11437E+08
0.11315E+08
0.11443E+08
0.11489E+08
0.11168E+08
0.11224E+08
0.11137E+08
0.11174E+08
0.11271E+08
0.11036E+08
0.11039E+08
0.11149E+08
0.11154E+08
0.11139E+08
0.11166E+08
0.11124E+08
0.11493E+08
0.10823E+08
</weights>
</event>
<event>
      6  10001 -1.11453E+07  8.94427E-01 -1.00000E+00  2.79011E-01
      21    -1     0     0   502   501  0.000000000E+00  0.000000000E+00  1.906219519E-02  1.906219519E-02  0.000000000E+00  0.00000E+00  9.000E+00
       2    -1     0     0   501     0  0.000000000E+00  0.000000000E+00 -2.077124832E+02  2.077124832E+02  0.000000000E+00  0.00000E+00  9.000E+00
      23     2     1     2     0     0  7.566075877E-01  5.137024034E-01 -1.948490817E+02  1.948546903E+02  1.161612596E+00  0.00000E+00  9.000E+00
      11     1     3     3     0     0  8.317116081E-01  3.241904678E-01 -1.889136078E+02  1.889157168E+02  5.110000000E-04  0.00000E+00  9.000E+00
     -11     1     3     3     0     0 -7.510402041E-02  1.895119356E-01 -5.935473873E+00  5.938973459E+00  5.110000000E-04  0.00000E+00  9.000E+00
       2     1     1     2   502     0 -7.566075877E-01 -5.137024034E-01 -1.284433932E+01  1.287685512E+01  0.000000000E+00  0.00000E+00  9.000E+00
#rwgt            1          17  -30317971.038855929                3     5116137           0
<weights>
-.11145E+08
-.12075E+08
-.10074E+08
-.14675E+08
-.80717E+07
-.91702E+07
-.13910E+08
-.11129E+08
-.11160E+08
-.11173E+08
-.11169E+08
-.11100E+08
-.11205E+08
-.11171E+08
-.11170E+08
-.11304E+08
-.10892E+08
-.11235E+08
-.10953E+08
-.10934E+08
-.11244E+08
-.11103E+08
-.11138E+08
-.11178E+08
-.11058E+08
-.11131E+08
-.11142E+08
-.11029E+08
-.11205E+08
-.11102E+08
-.11137E+08
-.11063E+08
-.11219E+08
-.11232E+08
-.11026E+08
-.11138E+08
-.11148E+08
-.11171E+08
-.11120E+08
-.11161E+08
-.11127E+08
-.11166E+08
-.11123E+08
-.11116E+08
-.11172E+08
</weights>
</event>
<event>
      6  10001 -1.11453E+07  8.94427E-01 -1.00000E+00  2.10831E-01
       2    -1     0     0   501     0  0.000000000E+00  0.000000000E+00  4.255046369E+02  4.255046369E+02  0.000000000E+00  0.00000E+00  9.000E+00
      21    -1     0     0   502   501  0.000000000E+00  0.000000000E+00 -1.329701958E-03  1.329701958E-03  0.000000000E+00  0.00000E+00  9.000E+00
      23     2     1     2     0     0  1.583195065E-01  2.038653078E-01  3.834335921E+02  3.834354596E+02  1.168565766E+00  0.00000E+00  9.000E+00
      11     1     3     3     0     0 -4.551341799E-01 -1.549616568E-01  1.374428157E+02  1.374436567E+02  5.110000000E-04  0.00000E+00  9.000E+00
     -11     1     3     3     0     0  6.134536864E-01  3.588269646E-01  2.459907763E+02  2.459918030E+02  5.110000000E-04  0.00000E+00  9.000E+00
       2     1     1     2   502     0 -1.583195065E-01 -2.038653078E-01  4.206971509E+01  4.207050694E+01  0.000000000E+00  0.00000E+00  9.000E+00
#rwgt            1          24  -7853282.1352197742                3     5116396           0
<weights>
-.11145E+08
-.11702E+08
-.10402E+08
-.14236E+08
-.83354E+07
-.91612E+07
-.13909E+08
-.11172E+08
-.11120E+08
-.10825E+08
-.10816E+08
-.10963E+08
-.11008E+08
-.10843E+08
-.10826E+08
-.11225E+08
-.11210E+08
-.11459E+08
-.11501E+08
-.11489E+08
-.11436E+08
-.11498E+08
-.11518E+08
-.11410E+08
-.11328E+08
-.11286E+08
-.11355E+08
-.11432E+08
-.11370E+08
-.11476E+08
-.11511E+08
-.11183E+08
-.11217E+08
-.11138E+08
-.11177E+08
-.11209E+08
-.11101E+08
-.11129E+08
-.11087E+08
-.11166E+08
-.11128E+08
-.11185E+08
-.11104E+08
-.11503E+08
-.10816E+08
</weights>
</event>
<event>
      6  10001 -1.11453E+07  8.94427E-01 -1.00000E+00  5.99360E-01
      21    -1     0     0   502   501  0.000000000E+00  0.000000000E+00  8.551098279E-03  8.551098279E-03  0.000000000E+00  0.00000E+00  9.000E+00
       2    -1     0     0   501     0  0.000000000E+00  0.000000000E+00 -2.123286083E+02  2.123286083E+02  0.000000000E+00  0.00000E+00  9.000E+00
      23     2     1     2     0     0  1.882698677E-01  2.651659568E-01 -2.045435671E+02  2.045538724E+02  2.027339283E+00  0.00000E+00  9.000E+00
      11     1     3     3     0     0 -5.874933357E-01  1.936034515E-01 -1.715266316E+02  1.715277470E+02  5.110000000E-04  0.00000E+00  9.000E+00
     -11     1     3     3     0     0  7.757632034E-01  7.156250534E-02 -3.301693556E+01  3.302612547E+01  5.110000000E-04  0.00000E+00  9.000E+00
       2     1     1     2   502     0 -1.882698677E-01 -2.651659568E-01 -7.776490066E+00  7.783286984E+00  0.000000000E+00  0.00000E+00  9.000E+00
#rwgt            1          17  -8836908.9163517468                3     5117797           0
<weights>
-.11145E+08
-.12069E+08
-.10066E+08
-.14669E+08
-.80651E+07
-.91702E+07
-.13910E+08
-.11129E+08
-.11161E+08
-.11173E+08
-.11168E+08
-.11095E+08
-.11210E+08
-.11171E+08
-.11169E+08
-.11309E+08
-.10887E+08
-.11245E+08
-.10941E+08
-.10919E+08
-.11256E+08
-.11103E+08
-.11140E+08
-.11173E+08
-.11063E+08
-.11138E+08
-.11138E+08
-.11017E+08
-.11221E+08
-.11101E+08
-.11139E+08
-.11059E+08
-.11223E+08
-.11242E+08
-.11013E+08
-.11137E+08
-.11149E+08
-.11171E+08
-.11120E+08
-.11165E+08
-.11124E+08
-.11164E+08
-.11125E+08
-.11117E+08
-.11172E+08
</weights>
</event>
<event>
      6  10001 -1.11453E+07  8.94427E-01 -1.00000E+00  3.36833E-01
       1    -1     0     0   501     0  0.000000000E+00  0.000000000E+00  3.456582062E+02  3.456582062E+02  0.000000000E+00  0.00000E+00  9.000E+00
      21    -1     0     0   502   501  0.000000000E+00  0.000000000E+00 -6.173622403E-03  6.173622403E-03  0.000000000E+00  0.00000E+00  9.000E+00
      23     2     1     2     0     0 -9.145106379E-02  4.602458144E-01  3.343597767E+02  3.343623785E+02  1.232776755E+00  0.00000E+00  9.000E+00
      11     1     3     3     0     0 -1.791867419E-01  7.150247906E-01  3.134364839E+02  3.134373507E+02  5.110000000E-04  0.00000E+00  9.000E+00
     -11     1     3     3     0     0  8.773567806E-02 -2.547789762E-01  2.092329276E+01  2.092502784E+01  5.110000000E-04  0.00000E+00  9.000E+00
       1     1     1     2   502     0  9.145106379E-02 -4.602458144E-01  1.129225587E+01  1.130200124E+01  0.000000000E+00  0.00000E+00  9.000E+00
#rwgt            1          22  -5939483.6615088917                3     5118321           0
<weights>
-.11145E+08
-.11869E+08
-.10208E+08
-.14432E+08
-.81794E+07
-.91657E+07
-.13909E+08
-.11180E+08
-.11110E+08
-.10841E+08
-.10842E+08
-.10969E+08
-.11022E+08
-.10863E+08
-.10851E+08
-.11223E+08
-.11196E+08
-.11435E+08
-.11471E+08
-.11461E+08
-.11413E+08
-.11468E+08
-.11493E+08
-.11371E+08
-.11328E+08
-.11280E+08
-.11298E+08
-.11405E+08
-.11347E+08
-.11442E+08
-.11481E+08
-.11174E+08
-.11217E+08
-.11140E+08
-.11172E+08
-.11216E+08
-.11092E+08
-.11095E+08
-.11122E+08
-.11157E+08
-.11135E+08
-.11181E+08
-.11109E+08
-.11478E+08
-.10838E+08
</weights>
</event>
<event>
      7  10001  1.11453E+07  5.65658E+00 -1.00000E+00  2.28313E-01
       2    -1     0     0   501     0  0.000000000E+00  0.000000000E+00  4.658424836E+00  4.658424836E+00  0.000000000E+00  0.00000E+00  9.000E+00
      21    -1     0     0   502   501  0.000000000E+00  0.000000000E+00 -2.230579303E+00  2.230579303E+00  0.000000000E+00  0.00000E+00  9.000E+00
      23     2     1     2     0     0 -9.078115428E-01  2.364183646E-01  1.997211731E+00  2.438638505E+00  1.038309981E+00  0.00000E+00  9.000E+00
      11     1     3     3     0     0 -7.226836404E-01 -7.144972785E-03  2.006369954E+00  2.132567314E+00  5.110000000E-04  0.00000E+00  9.000E+00
     -11     1     3     3     0     0 -1.851279024E-01  2.435633374E-01 -9.158223021E-03  3.060711907E-01  5.110000000E-04  0.00000E+00  9.000E+00
       2     1     1     2   511     0  2.358086830E-01  1.115384506E+00  1.981516297E+00  2.286065434E+00  0.000000000E+00  0.00000E+00  9.000E+00
      21     1     1     2   502   511  6.720028598E-01 -1.351802871E+00 -1.550882495E+00  2.164300201E+00  1.800514158E-07  0.00000E+00  9.000E+00
#rwgt            2         248   3569621.2471540137                3     5120335           0
<weights>
0.11145E+08
0.11146E+08
0.10910E+08
0.13546E+08
0.87414E+07
0.91702E+07
0.13910E+08
0.11202E+08
0.11086E+08
0.10864E+08
0.10874E+08
0.10974E+08
0.11045E+08
0.10889E+08
0.10882E+08
0.11222E+08
0.11178E+08
0.11409E+08
0.11417E+08
0.11413E+08
0.11389E+08
0.11430E+08
0.11456E+08
0.11295E+08
0.11338E+08
0.11289E+08
0.11133E+08
0.11378E+08
0.11311E+08
0.11401E+08
0.11442E+08
0.11166E+08
0.11213E+08
0.11140E+08
0.11168E+08
0.11237E+08
0.11069E+08
0.11060E+08
0.11158E+08
0.11148E+08
0.11144E+08
0.11172E+08
0.11118E+08
0.11444E+08
0.10867E+08
</weights>
</event>
<event>
      7  10001  1.11453E+07  1.38593E+01 -1.00000E+00  1.80383E-01
      -2    -1     0     0     0   502  0.000000000E+00  0.000000000E+00  3.513980787E+02  3.513980787E+02  0.000000000E+00  0.00000E+00  9.000E+00
      21    -1     0     0   512   501  0.000000000E+00  0.000000000E+00 -3.700699159E+00  3.700699159E+00  0.000000000E+00  0.00000E+00  9.000E+00
      23     2     1     2     0     0 -7.540855927E+00  5.103464610E+00  1.920864258E+02  1.923545226E+02  4.489711116E+00  0.00000E+00  9.000E+00
      11     1     3     3     0     0 -5.302553436E-01  6.575181574E-02  1.940325819E+00  2.012550267E+00  5.110000000E-04  0.00000E+00  9.000E+00
     -11     1     3     3     0     0 -7.010600583E+00  5.037712794E+00  1.901461000E+02  1.903419723E+02  5.110000000E-04  0.00000E+00  9.000E+00
      -2     1     1     2     0   501  1.122096989E+01 -1.846524883E+01  1.408458319E+02  1.424935926E+02  0.000000000E+00  0.00000E+00  9.000E+00
      21     1     1     2   512   502 -3.680113961E+00  1.336178422E+01  1.476512188E+01  2.025066271E+01  4.129530925E-07  0.00000E+00  9.000E+00
#rwgt            1           7   2646418.9402490566                3     5120567           0
<weights>
0.11145E+08
0.11427E+08
0.10681E+08
0.12240E+08
0.98924E+07
0.10404E+08
0.12017E+08
0.11193E+08
0.11094E+08
0.10809E+08
0.10800E+08
0.10952E+08
0.11004E+08
0.10825E+08
0.10810E+08
0.11232E+08
0.11214E+08
0.11481E+08
0.11506E+08
0.11500E+08
0.11455E+08
0.11517E+08
0.11541E+08
0.11377E+08
0.11359E+08
0.11314E+08
0.11202E+08
0.11454E+08
0.11373E+08
0.11493E+08
0.11530E+08
0.11187E+08
0.11218E+08
0.11136E+08
0.11180E+08
0.11228E+08
0.11081E+08
0.11128E+08
0.11076E+08
0.11170E+08
0.11125E+08
0.11183E+08
0.11106E+08
0.11522E+08
0.10799E+08
</weights>
</event>
<event>
      6  10001 -1.11453E+07  8.94427E-01 -1.00000E+00  4.11212E-01
      -1    -1     0     0     0   502  0.000000000E+00  0.000000000E+00  7.695954477E+01  7.695954477E+01  0.000000000E+00  0.00000E+00  9.000E+00
      21    -1     0     0   502   501  0.000000000E+00  0.000000000E+00 -2.209104866E-02  2.209104866E-02  0.000000000E+00  0.00000E+00  9.000E+00
      23     2     1     2     0     0  8.681728173E-02 -7.169859547E-01  3.728934442E+01  3.732694912E+01  1.511395758E+00  0.00000E+00  9.000E+00
      11     1     3     3     0     0  7.115623425E-02 -1.186899338E+00  2.888605937E+01  2.891052091E+01  5.110000000E-04  0.00000E+00  9.000E+00
     -11     1     3     3     0     0  1.566104748E-02  4.699133834E-01  8.403285052E+00  8.416428208E+00  5.110000000E-04  0.00000E+00  9.000E+00
      -1     1     1     2     0   501 -8.681728173E-02  7.169859547E-01  3.964810930E+01  3.965468670E+01  0.000000000E+00  0.00000E+00  9.000E+00
#rwgt            1           9  -644388.15958253143                3     5133031           0
<weights>
-.11145E+08
-.12556E+08
-.95432E+07
-.15268E+08
-.76467E+07
-.91656E+07
-.13909E+08
-.11172E+08
-.11120E+08
-.10823E+08
-.10813E+08
-.10962E+08
-.11006E+08
-.10841E+08
-.10824E+08
-.11226E+08
-.11211E+08
-.11462E+08
-.11504E+08
-.11492E+08
-.11439E+08
-.11501E+08
-.11521E+08
-.11412E+08
-.11328E+08
-.11286E+08
-.11352E+08
-.11435E+08
-.11372E+08
-.11479E+08
-.11514E+08
-.11184E+08
-.11217E+08
-.11138E+08
-.11178E+08
-.11208E+08
-.11101E+08
-.11132E+08
-.11084E+08
-.11166E+08
-.11128E+08
-.11185E+08
-.11104E+08
-.11506E+08
-.10814E+08
</weights>
</event>
<event>
      6  10001 -1.11453E+07  8.94427E-01 -1.00000E+00  4.02324E-01
       2    -1     0     0   501     0  0.000000000E+00  0.000000000E+00  2.504907857E+02  2.504907857E+02  0.000000000E+00  0.00000E+00  9.000E+00
      -2    -1     0     0     0   502  0.000000000E+00  0.000000000E+00 -5.783684366E-03  5.783684366E-03  0.000000000E+00  0.00000E+00  9.000E+00
      23     2     1     2     0     0  4.610244861E-01 -5.318583424E-02  9.006752840E+01  9.007842448E+01  1.321935316E+00  0.00000E+00  9.000E+00
      11     1     3     3     0     0  9.671518938E-02 -1.646529103E-01  8.327580450E+01  8.327602344E+01  5.110000000E-04  0.00000E+00  9.000E+00
     -11     1     3     3     0     0  3.643092967E-01  1.114670761E-01  6.791723895E+00  6.802401040E+00  5.110000000E-04  0.00000E+00  9.000E+00
      21     1     1     2   501   502 -4.610244861E-01  5.318583424E-02  1.604174736E+02  1.604181449E+02  3.303624740E-06  0.00000E+00  9.000E+00
#rwgt            1          23  -588150.34421831009                3     5134397           0
<weights>
-.11145E+08
-.12733E+08
-.93340E+07
-.15490E+08
-.74794E+07
-.91618E+07
-.13909E+08
-.11162E+08
-.11132E+08
-.10821E+08
-.10809E+08
-.10961E+08
-.11003E+08
-.10838E+08
-.10820E+08
-.11225E+08
-.11215E+08
-.11468E+08
-.11504E+08
-.11493E+08
-.11444E+08
-.11507E+08
-.11525E+08
-.11411E+08
-.11329E+08
-.11292E+08
-.11322E+08
-.11441E+08
-.11372E+08
-.11485E+08
-.11518E+08
-.11184E+08
-.11218E+08
-.11137E+08
-.11179E+08
-.11202E+08
-.11109E+08
-.11138E+08
-.11078E+08
-.11168E+08
-.11126E+08
-.11187E+08
-.11102E+08
-.11510E+08
-.10810E+08
</weights>
</event>
<event>
      6  10001 -1.11453E+07  8.94427E-01 -1.00000E+00  5.05518E-01
      21    -1     0     0   502   501  0.000000000E+00  0.000000000E+00  1.346782540E-02  1.346782540E-02  0.000000000E+00  0.00000E+00  9.000E+00
      -2    -1     0     0     0   502  0.000000000E+00  0.000000000E+00 -7.806711000E+01  7.806711000E+01  0.000000000E+00  0.00000E+00  9.000E+00
      23     2     1     2     0     0 -4.644511156E-01 -3.970300844E-01 -5.480955159E+01  5.482845760E+01  1.303637186E+00  0.00000E+00  9.000E+00
      11     1     3     3     0     0 -6.337355396E-01 -6.625015114E-01 -5.010257416E+01  5.011096154E+01  5.110000000E-04  0.00000E+00  9.000E+00
     -11     1     3     3     0     0  1.692844240E-01  2.654714270E-01 -4.706977425E+00  4.717496056E+00  5.110000000E-04  0.00000E+00  9.000E+00
      -2     1     1     2     0   501  4.644511156E-01  3.970300844E-01 -2.324409059E+01  2.325212023E+01  0.000000000E+00  0.00000E+00  9.000E+00
#rwgt            1          14  -2703900.0079603055                3     5134635           0
<weights>
-.11145E+08
-.12371E+08
-.97592E+07
-.15035E+08
-.78196E+07
-.91702E+07
-.13910E+08
-.11194E+08
-.11096E+08
-.11108E+08
-.11161E+08
-.11077E+08
-.11145E+08
-.11163E+08
-.11165E+08
-.11068E+08
-.11195E+08
-.11163E+08
-.11039E+08
-.11013E+08
-.11179E+08
-.11109E+08
-.11101E+08
-.11154E+08
-.11107E+08
-.11163E+08
-.11106E+08
-.11117E+08
-.11010E+08
-.11086E+08
-.11112E+08
-.11110E+08
-.11169E+08
-.11277E+08
-.11014E+08
-.11056E+08
-.11219E+08
-.10992E+08
-.11333E+08
-.11092E+08
-.11181E+08
-.11262E+08
-.11020E+08
-.11131E+08
-.11146E+08
</weights>
</event>
<event>
      6  10001  1.11453E+07  8.94427E-01 -1.00000E+00  6.06628E-01
       4    -1     0     0   501     0  0.000000000E+00  0.000000000E+00  5.764875586E+01  5.764875586E+01  0.000000000E+00  0.00000E+00  9.000E+00
      21    -1     0     0   502   501  0.000000000E+00  0.000000000E+00 -5.275589158E-02  5.275589158E-02  0.000000000E+00  0.00000E+00  9.000E+00
      23     2     1     2     0     0  4.013677675E-01 -6.494301949E-01  1.395487233E+01  1.405370680E+01  1.478295427E+00  0.00000E+00  9.000E+00
      11     1     3     3     0     0  2.615247541E-01 -1.118742255E+00  1.081842957E+01  1.087926459E+01  5.110000000E-04  0.00000E+00  9.000E+00
     -11     1     3     3     0     0  1.398430134E-01  4.693120600E-01  3.136442759E+00  3.174442206E+00  5.110000000E-04  0.00000E+00  9.000E+00
       4     1     1     2   502     0 -4.013677675E-01  6.494301949E-01  4.364112764E+01  4.364780495E+01  0.000000000E+00  0.00000E+00  9.000E+00
#rwgt            1          28   44538.693737391673                3     5135464           0
<weights>
0.11145E+08
0.16701E+08
0.60889E+07
0.10578E+08
0.10368E+08
0.15346E+08
0.44300E+07
0.11059E+08
0.11248E+08
0.10626E+08
0.10509E+08
0.10889E+08
0.10833E+08
0.10604E+08
0.10535E+08
0.11252E+08
0.11375E+08
0.11747E+08
0.11882E+08
0.11844E+08
0.11705E+08
0.11861E+08
0.11831E+08
0.11889E+08
0.11331E+08
0.11351E+08
0.12087E+08
0.11745E+08
0.11644E+08
0.11873E+08
0.11871E+08
0.11282E+08
0.11228E+08
0.11113E+08
0.11238E+08
0.11111E+08
0.11216E+08
0.11514E+08
0.10697E+08
0.11262E+08
0.11044E+08
0.11239E+08
0.11047E+08
0.11809E+08
0.10548E+08
</weights>
</event>
<event>
      6  10001  1.11453E+07  8.94427E-01 -1.00000E+00  5.95491E-01
      21    -1     0     0   502   501  0.000000000E+00  0.000000000E+00  3.663699983E+01  3.663699983E+01  0.000000000E+00  0.00000E+00  9.000E+00
       4    -1     0     0   501     0  0.000000000E+00  0.000000000E+00 -7.391603870E-02  7.391603870E-02  0.000000000E+00  0.00000E+00  9.000E+00
      23     2     1     2     0     0  1.068949973E+00 -5.750623314E-01  1.863719355E+01  1.874397701E+01  1.586927941E+00  0.00000E+00  9.000E+00
      11     1     3     3     0     0  1.379158846E+00 -2.310599808E-01  1.037588013E+01  1.046968751E+01  5.110000000E-04  0.00000E+00  9.000E+00
     -11     1     3     3     0     0 -3.102088731E-01 -3.440023506E-01  8.261313415E+00  8.274289502E+00  5.110000000E-04  0.00000E+00  9.000E+00
       4     1     1     2   502     0 -1.068949973E+00  5.750623314E-01  1.792589024E+01  1.796693885E+01  0.000000000E+00  0.00000E+00  9.000E+00
#rwgt            1          19   506859.91918695334                3     5188926           0
<weights>
0.11145E+08
0.13210E+08
0.91269E+07
0.12223E+08
0.97065E+07
0.11711E+08
0.10010E+08
0.11156E+08
0.11135E+08
0.10751E+08
0.10704E+08
0.10931E+08
0.10950E+08
0.10754E+08
0.10720E+08
0.11240E+08
0.11265E+08
0.11571E+08
0.11620E+08
0.11606E+08
0.11539E+08
0.11631E+08
0.11633E+08
0.11531E+08
0.11353E+08
0.11329E+08
0.11427E+08
0.11552E+08
0.11460E+08
0.11619E+08
0.11642E+08
0.11220E+08
0.11219E+08
0.11127E+08
0.11201E+08
0.11194E+08
0.11120E+08
0.11265E+08
0.10949E+08
0.11201E+08
0.11098E+08
0.11200E+08
0.11088E+08
0.11615E+08
0.10718E+08
</weights>
</event>
<event>
      7  10001  1.11453E+07  3.04084E+01 -1.00000E+00  1.52551E-01
      21    -1     0     0   502   501  0.000000000E+00  0.000000000E+00  4.200410215E+00  4.200410215E+00  0.000000000E+00  0.00000E+00  9.000E+00
      -2    -1     0     0     0   502  0.000000000E+00  0.000000000E+00 -6.164384963E+01  6.164384963E+01  0.000000000E+00  0.00000E+00  9.000E+00
      23     2     1     2     0     0  2.282704123E+00  3.324214160E-01 -4.456352987E+00  5.204083412E+00  1.379188204E+00  0.00000E+00  9.000E+00
      11     1     3     3     0     0 -6.558767532E-02 -9.380396809E-02 -9.838398950E-01  9.904757078E-01  5.110000000E-04  0.00000E+00  9.000E+00
     -11     1     3     3     0     0  2.348291799E+00  4.262253841E-01 -3.472513092E+00  4.213607704E+00  5.110000000E-04  0.00000E+00  9.000E+00
      -2     1     1     2     0   511  7.222821144E+00 -1.187493759E+01 -3.183220777E+01  3.473431646E+01  0.000000000E+00  0.00000E+00  9.000E+00
      21     1     1     2   511   501 -9.505525268E+00  1.154251617E+01 -2.115487865E+01  2.590585997E+01  5.519789173E-06  0.00000E+00  9.000E+00
#rwgt            2         160   2244799.2872468140                3     5195646           0
<weights>
0.11145E+08
0.10213E+08
0.12095E+08
0.12412E+08
0.96914E+07
0.91702E+07
0.13910E+08
0.11211E+08
0.11080E+08
0.11060E+08
0.11122E+08
0.11062E+08
0.11123E+08
0.11119E+08
0.11124E+08
0.11079E+08
0.11203E+08
0.11195E+08
0.11092E+08
0.11067E+08
0.11209E+08
0.11149E+08
0.11153E+08
0.11166E+08
0.11151E+08
0.11204E+08
0.11088E+08
0.11155E+08
0.11031E+08
0.11119E+08
0.11152E+08
0.11095E+08
0.11197E+08
0.11268E+08
0.11025E+08
0.11054E+08
0.11226E+08
0.10945E+08
0.11374E+08
0.11093E+08
0.11181E+08
0.11253E+08
0.11030E+08
0.11178E+08
0.11103E+08
</weights>
</event>
<event>
      6  10001 -1.11453E+07  8.94427E-01 -1.00000E+00  2.70946E-01
      21    -1     0     0   502   501  0.000000000E+00  0.000000000E+00  2.446943062E-02  2.446943062E-02  0.000000000E+00  0.00000E+00  9.000E+00
       2    -1     0     0   501     0  0.000000000E+00  0.000000000E+00 -2.628900376E+02  2.628900376E+02  0.000000000E+00  0.00000E+00  9.000E+00
      23     2     1     2     0     0 -3.198704752E-01 -1.205706942E-01 -2.613520304E+02  2.613628463E+02  2.353036939E+00  0.00000E+00  9.000E+00
      11     1     3     3     0     0 -9.486903055E-01  6.153766851E-01 -7.730247630E+01  7.731074663E+01  5.110000000E-04  0.00000E+00  9.000E+00
     -11     1     3     3     0     0  6.288198303E-01 -7.359473793E-01 -1.840495541E+02  1.840520997E+02  5.110000000E-04  0.00000E+00  9.000E+00
       2     1     1     2   502     0  3.198704752E-01  1.205706942E-01 -1.513537793E+00  1.551660744E+00  0.000000000E+00  0.00000E+00  9.000E+00
#rwgt            1          17  -124582568.71188006                3     5197493           0
<weights>
-.11145E+08
-.12185E+08
-.99318E+07
-.14810E+08
-.79579E+07
-.91702E+07
-.13910E+08
-.11127E+08
-.11162E+08
-.11172E+08
-.11164E+08
-.11067E+08
-.11241E+08
-.11167E+08
-.11165E+08
-.11329E+08
-.10863E+08
-.11305E+08
-.10872E+08
-.10840E+08
-.11322E+08
-.11103E+08
-.11151E+08
-.11145E+08
-.11095E+08
-.11181E+08
-.11114E+08
-.10951E+08
-.11310E+08
-.11093E+08
-.11153E+08
-.11040E+08
-.11243E+08
-.11305E+08
-.10937E+08
-.11130E+08
-.11156E+08
-.11169E+08
-.11122E+08
-.11187E+08
-.11105E+08
-.11156E+08
-.11134E+08
-.11121E+08
-.11169E+08
</weights>
</event>
<event>
      6  10001  1.11453E+07  8.94427E-01 -1.00000E+00  6.03060E-01
       2    -1     0     0   501     0  0.000000000E+00  0.000000000E+00  2.552529122E-01  2.552529122E-01  0.000000000E+00  0.00000E+00  9.000E+00
      21    -1     0     0   502   501  0.000000000E+00  0.000000000E+00 -2.096199877E+01  2.096199877E+01  0.000000000E+00  0.00000E+00  9.000E+00
      23     2     1     2     0     0  6.190736968E-01  2.535784286E-02 -3.302461347E+00  3.801941906E+00  1.778936774E+00  0.00000E+00  9.000E+00
      11     1     3     3     0     0 -3.573384457E-01 -4.630108470E-01 -2.090462522E+00  2.170738037E+00  5.110000000E-04  0.00000E+00  9.000E+00
     -11     1     3     3     0     0  9.764121425E-01  4.883686899E-01 -1.211998825E+00  1.631203869E+00  5.110000000E-04  0.00000E+00  9.000E+00
       2     1     1     2   502     0 -6.190736968E-01 -2.535784286E-02 -1.740428452E+01  1.741530978E+01  0.000000000E+00  0.00000E+00  9.000E+00
#rwgt            1          24   2760124.9203662658                3     5198496           0
<weights>
0.11145E+08
0.12122E+08
0.10063E+08
0.12531E+08
0.95489E+07
0.10681E+08
0.11591E+08
0.11252E+08
0.11035E+08
0.10742E+08
0.10790E+08
0.10914E+08
0.11006E+08
0.10779E+08
0.10791E+08
0.11232E+08
0.11215E+08
0.11493E+08
0.11540E+08
0.11537E+08
0.11466E+08
0.11515E+08
0.11597E+08
0.11282E+08
0.11486E+08
0.11421E+08
0.11024E+08
0.11468E+08
0.11331E+08
0.11463E+08
0.11536E+08
0.11148E+08
0.11259E+08
0.11150E+08
0.11159E+08
0.11313E+08
0.10999E+08
0.10914E+08
0.11239E+08
0.11154E+08
0.11139E+08
0.11172E+08
0.11118E+08
0.11554E+08
0.10765E+08
</weights>
</event>
<event>
      6  10001 -1.11453E+07  8.94427E-01 -1.00000E+00  5.93493E-01
       2    -1     0     0   501     0  0.000000000E+00  0.000000000E+00  5.536500717E+02  5.536500717E+02  0.000000000E+00  0.00000E+00  9.000E+00
      21    -1     0     0   502   501  0.000000000E+00  0.000000000E+00 -2.074024376E-03  2.074024376E-03  0.000000000E+00  0.00000E+00  9.000E+00
      23     2     1     2     0     0  3.494178648E-01 -3.684477694E-01  4.942135308E+02  4.942155098E+02  1.303140984E+00  0.00000E+00  9.000E+00
      11     1     3     3     0     0 -4.583313695E-01 -3.122889170E-01  2.565960007E+02  2.565966001E+02  5.110000000E-04  0.00000E+00  9.000E+00
     -11     1     3     3     0     0  8.077492343E-01 -5.615885244E-02  2.376175302E+02  2.376189097E+02  5.110000000E-04  0.00000E+00  9.000E+00
       2     1     1     2   502     0 -3.494178648E-01  3.684477694E-01  5.943446685E+01  5.943663597E+01  0.000000000E+00  0.00000E+00  9.000E+00
#rwgt            1          24  -22185101.078336522                3     5337752           0
<weights>
-.11145E+08
-.12024E+08
-.10049E+08
-.14629E+08
-.80527E+07
-.91606E+07
-.13909E+08
-.11168E+08
-.11125E+08
-.10819E+08
-.10807E+08
-.10961E+08
-.11002E+08
-.10836E+08
-.10818E+08
-.11226E+08
-.11215E+08
-.11467E+08
-.11513E+08
-.11500E+08
-.11443E+08
-.11508E+08
-.11527E+08
-.11425E+08
-.11327E+08
-.11287E+08
-.11384E+08
-.11441E+08
-.11377E+08
-.11487E+08
-.11521E+08
-.11185E+08
-.11217E+08
-.11137E+08
-.11179E+08
-.11205E+08
-.11105E+08
-.11139E+08
-.11077E+08
-.11168E+08
-.11126E+08
-.11186E+08
-.11102E+08
-.11512E+08
-.10809E+08
</weights>
</event>
<event>
      7  10001  1.11453E+07  1.27070E+00 -1.00000E+00  4.77889E-01
       1    -1     0     0   501     0  0.000000000E+00  0.000000000E+00  6.259928083E+00  6.259928083E+00  0.000000000E+00  0.00000E+00  9.000E+00
      21    -1     0     0   511   501  0.000000000E+00  0.000000000E+00 -1.141712385E+01  1.141712385E+01  0.000000000E+00  0.00000E+00  9.000E+00
      23     2     1     2     0     0  2.572226788E-01  6.628892185E-02  2.583105011E+00  2.813120036E+00  1.081968166E+00  0.00000E+00  9.000E+00
      11     1     3     3     0     0  3.438106450E-01  5.127538198E-01  1.094613969E+00  1.256702925E+00  5.110000000E-04  0.00000E+00  9.000E+00
     -11     1     3     3     0     0 -8.658796612E-02 -4.464648980E-01  1.488491042E+00  1.556417112E+00  5.110000000E-04  0.00000E+00  9.000E+00
       1     1     1     2   502     0  9.724133584E-01 -3.867036152E-01  3.448202536E+00  3.603502207E+00  0.000000000E+00  0.00000E+00  9.000E+00
      21     1     1     2   511   502 -1.229636037E+00  3.204146934E-01 -1.118850332E+01  1.126042969E+01  1.192092896E-07  0.00000E+00  9.000E+00
#rwgt            1          22   116012.28355884249                3     5338822           0
<weights>
0.11145E+08
0.16569E+08
0.62368E+07
0.11054E+08
0.10115E+08
0.14916E+08
0.50901E+07
0.11118E+08
0.11177E+08
0.10683E+08
0.10604E+08
0.10907E+08
0.10891E+08
0.10675E+08
0.10624E+08
0.11249E+08
0.11317E+08
0.11663E+08
0.11747E+08
0.11723E+08
0.11626E+08
0.11749E+08
0.11736E+08
0.11690E+08
0.11352E+08
0.11346E+08
0.11671E+08
0.11652E+08
0.11551E+08
0.11748E+08
0.11760E+08
0.11251E+08
0.11225E+08
0.11120E+08
0.11219E+08
0.11161E+08
0.11160E+08
0.11385E+08
0.10830E+08
0.11231E+08
0.11071E+08
0.11219E+08
0.11068E+08
0.11716E+08
0.10629E+08
</weights>
</event>
<event>
      7  10001  1.11453E+07  8.94427E-01 -1.00000E+00  6.07649E-01
      21    -1     0     0   502   501  0.000000000E+00  0.000000000E+00  2.672201296E-02  2.672201296E-02  0.000000000E+00  0.00000E+00  9.000E+00
       2    -1     0     0   501     0  0.000000000E+00  0.000000000E+00 -5.902702289E+01  5.902702289E+01  0.000000000E+00  0.00000E+00  9.000E+00
      23     2     1     2     0     0 -1.792076705E-02  1.091880133E-01 -3.950350922E+01  3.953853427E+01  1.660183172E+00  0.00000E+00  9.000E+00
      11     1     3     3     0     0 -3.036976077E-01 -5.069347201E-01 -6.199632629E+00  6.227733138E+00  5.110000000E-04  0.00000E+00  9.000E+00
     -11     1     3     3     0     0  2.857768407E-01  6.161227334E-01 -3.330387659E+01  3.331080113E+01  5.110000000E-04  0.00000E+00  9.000E+00
       2     1     1     2   511     0 -2.197679368E-01 -4.160224357E-02 -1.487377874E+00  1.504101603E+00  0.000000000E+00  0.00000E+00  9.000E+00
      21     1     1     2   502   511  2.376887039E-01 -6.758576977E-02 -1.800941378E+01  1.801110903E+01  0.000000000E+00  0.00000E+00  9.000E+00
#rwgt            2         189   41065899.910801463                3     5341479           0
<weights>
0.11145E+08
0.11587E+08
0.10471E+08
0.14082E+08
0.83897E+07
0.91702E+07
0.13910E+08
0.11178E+08
0.11112E+08
0.11099E+08
0.11133E+08
0.11157E+08
0.11074E+08
0.11128E+08
0.11133E+08
0.11119E+08
0.11158E+08
0.11068E+08
0.11263E+08
0.11274E+08
0.11060E+08
0.11156E+08
0.11148E+08
0.11235E+08
0.11072E+08
0.11093E+08
0.11166E+08
0.11286E+08
0.10933E+08
0.11158E+08
0.11135E+08
0.11141E+08
0.11150E+08
0.11069E+08
0.11247E+08
0.11125E+08
0.11162E+08
0.11055E+08
0.11246E+08
0.11081E+08
0.11197E+08
0.11204E+08
0.11083E+08
0.11165E+08
0.11121E+08
</weights>
</event>
<event>
      7  10001  1.11453E+07  1.42688E+00 -1.00000E+00  4.41978E-01
      21    -1     0     0   502   501  0.000000000E+00  0.000000000E+00  1.094577272E+01  1.094577272E+01  0.000000000E+00  0.00000E+00  9.000E+00
       2    -1     0     0   501     0  0.000000000E+00  0.000000000E+00 -3.244486634E+00  3.244486634E+00  0.000000000E+00  0.00000E+00  9.000E+00
      23     2     1     2     0     0 -2.166792158E-01 -1.395852164E+00 -1.196612525E+00  4.997677116E+00  4.642148412E+00  0.00000E+00  9.000E+00
      11     1     3     3     0     0 -5.793068620E-01 -2.983586571E+00 -1.418465654E+00  3.354017045E+00  5.110000000E-04  0.00000E+00  9.000E+00
     -11     1     3     3     0     0  3.626276462E-01  1.587734407E+00  2.218531289E-01  1.643660071E+00  5.110000000E-04  0.00000E+00  9.000E+00
       2     1     1     2   512     0  9.708652671E-01  6.030242555E-01  5.676418142E+00  5.790331644E+00  0.000000000E+00  0.00000E+00  9.000E+00
      21     1     1     2   502   512 -7.541860513E-01  7.928279080E-01  3.221480470E+00  3.402250595E+00  9.424321831E-08  0.00000E+00  9.000E+00
#rwgt            1          17   1920933.3025816663                3     5341711           0
<weights>
0.11162E+08
0.12541E+08
0.96588E+07
0.12629E+08
0.95494E+07
0.11000E+08
0.11142E+08
0.11062E+08
0.11262E+08
0.10861E+08
0.10830E+08
0.11028E+08
0.10963E+08
0.10869E+08
0.10843E+08
0.11138E+08
0.11385E+08
0.11459E+08
0.11528E+08
0.11520E+08
0.11438E+08
0.11523E+08
0.11516E+08
0.11406E+08
0.11335E+08
0.11397E+08
0.11081E+08
0.11554E+08
0.11235E+08
0.11516E+08
0.11506E+08
0.11178E+08
0.11255E+08
0.11134E+08
0.11232E+08
0.10998E+08
0.11353E+08
0.11166E+08
0.11066E+08
0.11172E+08
0.11149E+08
0.11250E+08
0.11069E+08
0.11510E+08
0.10843E+08
</weights>
</event>
<event>
      6  10001  1.11453E+07  8.94427E-01 -1.00000E+00  6.06473E-01
      21    -1     0     0   502   501  0.000000000E+00  0.000000000E+00  2.497429245E-01  2.497429245E-01  0.000000000E+00  0.00000E+00  9.000E+00
      -4    -1     0     0     0   502  0.000000000E+00  0.000000000E+00 -1.769056852E+01  1.769056852E+01  0.000000000E+00  0.00000E+00  9.000E+00
      23     2     1     2     0     0  4.071695367E-01 -1.775090780E-01 -1.728412274E+01  1.746929946E+01  2.497644570E+00  0.00000E+00  9.000E+00
      11     1     3     3     0     0  1.065953601E+00 -9.527960170E-01 -1.226907157E+01  1.235209273E+01  5.110000000E-04  0.00000E+00  9.000E+00
     -11     1     3     3     0     0 -6.587840642E-01  7.752869390E-01 -5.015051169E+00  5.117206735E+00  5.110000000E-04  0.00000E+00  9.000E+00
      -4     1     1     2     0   501 -4.071695367E-01  1.775090780E-01 -1.567028625E-01  4.710119866E-01  0.000000000E+00  0.00000E+00  9.000E+00
#rwgt            1          12   622591.44834109198                3     5364659           0
<weights>
0.11145E+08
0.16136E+08
0.65607E+07
0.11300E+08
0.10097E+08
0.14516E+08
0.57039E+07
0.11309E+08
0.10976E+08
0.10471E+08
0.10523E+08
0.10777E+08
0.10888E+08
0.10502E+08
0.10521E+08
0.11256E+08
0.11359E+08
0.11757E+08
0.11876E+08
0.11874E+08
0.11711E+08
0.11807E+08
0.11955E+08
0.11415E+08
0.11733E+08
0.11697E+08
0.10930E+08
0.11768E+08
0.11463E+08
0.11739E+08
0.11842E+08
0.11172E+08
0.11325E+08
0.11150E+08
0.11177E+08
0.11415E+08
0.10912E+08
0.10868E+08
0.11160E+08
0.11208E+08
0.11093E+08
0.11182E+08
0.11108E+08
0.11858E+08
0.10490E+08
</weights>
</event>
<event>
      6  10001  1.11453E+07  8.94427E-01 -1.00000E+00  5.78877E-01
      -4    -1     0     0     0   502  0.000000000E+00  0.000000000E+00  4.295440676E+00  4.295440676E+00  0.000000000E+00  0.00000E+00  9.000E+00
       4    -1     0     0   501     0  0.000000000E+00  0.000000000E+00 -8.385287377E-01  8.385287377E-01  0.000000000E+00  0.00000E+00  9.000E+00
      23     2     1     2     0     0 -8.891083643E-01  2.073084205E-01  3.503404017E+00  4.219829393E+00  2.167862987E+00  0.00000E+00  9.000E+00
      11     1     3     3     0     0 -9.789602507E-01  9.402725996E-01  3.086575330E+00  3.371857539E+00  5.110000000E-04  0.00000E+00  9.000E+00
     -11     1     3     3     0     0  8.985188642E-02 -7.329641791E-01  4.168286875E-01  8.479718540E-01  5.110000000E-04  0.00000E+00  9.000E+00
      21     1     1     2   501   502  8.891083643E-01 -2.073084205E-01 -4.649207894E-02  9.141400210E-01  4.562530187E-09  0.00000E+00  9.000E+00
#rwgt            1           4   215084.15764116749                3     5378064           0
<weights>
0.11145E+08
0.13905E+08
0.85877E+07
0.12530E+08
0.92580E+07
0.11891E+08
0.97327E+07
0.11193E+08
0.11093E+08
0.10760E+08
0.10727E+08
0.10926E+08
0.10973E+08
0.10769E+08
0.10741E+08
0.11243E+08
0.11249E+08
0.11560E+08
0.11568E+08
0.11564E+08
0.11527E+08
0.11603E+08
0.11611E+08
0.11429E+08
0.11391E+08
0.11366E+08
0.11174E+08
0.11540E+08
0.11421E+08
0.11587E+08
0.11615E+08
0.11212E+08
0.11218E+08
0.11125E+08
0.11199E+08
0.11234E+08
0.11077E+08
0.11214E+08
0.10990E+08
0.11192E+08
0.11106E+08
0.11189E+08
0.11100E+08
0.11595E+08
0.10735E+08
</weights>
</event>
<event>
      6  10001 -1.11453E+07  8.94427E-01 -1.00000E+00  6.07598E-01
      21    -1     0     0   502   501  0.000000000E+00  0.000000000E+00  5.577889287E-02  5.577889287E-02  0.000000000E+00  0.00000E+00  9.000E+00
      -3    -1     0     0     0   502  0.000000000E+00  0.000000000E+00 -1.627223720E+01  1.627223720E+01  0.000000000E+00  0.00000E+00  9.000E+00
      23     2     1     2     0     0  6.934616506E-03 -2.588423613E-01 -1.548930593E+01  1.555613654E+01  1.416946911E+00  0.00000E+00  9.000E+00
      11     1     3     3     0     0  2.466982783E-01  5.117013033E-01 -4.233998968E+00  4.271937006E+00  5.110000000E-04  0.00000E+00  9.000E+00
     -11     1     3     3     0     0 -2.397636618E-01 -7.705436646E-01 -1.125530696E+01  1.128419954E+01  5.110000000E-04  0.00000E+00  9.000E+00
      -3     1     1     2     0   501 -6.934616506E-03  2.588423613E-01 -7.271523743E-01  7.718795452E-01  0.000000000E+00  0.00000E+00  9.000E+00
#rwgt            1          13  -80353.447887156741                3     5378900           0
<weights>
-.11145E+08
-.73540E+07
-.14150E+08
-.15081E+08
-.78895E+07
-.52931E+07
-.19862E+08
-.11201E+08
-.11091E+08
-.11087E+08
-.11139E+08
-.11002E+08
-.11269E+08
-.11141E+08
-.11148E+08
-.11180E+08
-.11141E+08
-.11332E+08
-.10823E+08
-.10827E+08
-.11330E+08
-.11135E+08
-.11095E+08
-.10608E+08
-.11658E+08
-.11991E+08
-.97295E+07
-.11288E+08
-.10823E+08
-.11095E+08
-.11101E+08
-.11069E+08
-.11215E+08
-.11146E+08
-.11137E+08
-.11236E+08
-.11061E+08
-.10868E+08
-.11468E+08
-.11055E+08
-.11229E+08
-.11108E+08
-.11185E+08
-.11155E+08
-.11122E+08
</weights>
</event>
<event>
      7  10001 -1.11453E+07  1.49807E+00 -1.00000E+00  4.27983E-01
      -2    -1     0     0     0   502  0.000000000E+00  0.000000000E+00  3.301242663E+00  3.301242663E+00  0.000000000E+00  0.00000E+00  9.000E+00
      21    -1     0     0   502   511  0.000000000E+00  0.000000000E+00 -1.043158565E+02  1.043158565E+02  0.000000000E+00  0.00000E+00  9.000E+00
      23     2     1     2     0     0 -5.023586639E-01 -5.500710813E-01  1.360720177E+00  2.948561259E+00  2.507491112E+00  0.00000E+00  9.000E+00
      11     1     3     3     0     0 -1.934959439E-01 -7.154823794E-01  2.047526235E+00  2.177549002E+00  5.110000000E-04  0.00000E+00  9.000E+00
     -11     1     3     3     0     0 -3.088627201E-01  1.654112981E-01 -6.868060578E-01  7.710122564E-01  5.110000000E-04  0.00000E+00  9.000E+00
      -2     1     1     2     0   501 -7.064610208E-01 -3.347827979E-01  1.007285523E+00  1.275065026E+00  0.000000000E+00  0.00000E+00  9.000E+00
      21     1     1     2   501   511  1.208819685E+00  8.848538792E-01 -1.033826196E+02  1.033934729E+02  1.348699152E-06  0.00000E+00  9.000E+00
#rwgt            1           7  -152130.90301089711                3     5389547           0
<weights>
-.11145E+08
-.84419E+07
-.11233E+08
-.24642E+08
-.43952E+06
0.15983E+06
-.28232E+08
-.11214E+08
-.11080E+08
-.11543E+08
-.11740E+08
-.11281E+08
-.11479E+08
-.11652E+08
-.11725E+08
-.11120E+08
-.10760E+08
-.10545E+08
-.10443E+08
-.10447E+08
-.10591E+08
-.10431E+08
-.10467E+08
-.10534E+08
-.10944E+08
-.10794E+08
-.10847E+08
-.10447E+08
-.10689E+08
-.10364E+08
-.10430E+08
-.10954E+08
-.11122E+08
-.11198E+08
-.11028E+08
-.11209E+08
-.11060E+08
-.10427E+08
-.11974E+08
-.10903E+08
-.11357E+08
-.11074E+08
-.11219E+08
-.10533E+08
-.11673E+08
</weights>
</event>
<event>
      6  10001 -1.11453E+07  8.94427E-01 -1.00000E+00  5.88893E-01
      21    -1     0     0   502   501  0.000000000E+00  0.000000000E+00  8.204300474E-03  8.204300474E-03  0.000000000E+00  0.00000E+00  9.000E+00
       1    -1     0     0   501     0  0.000000000E+00  0.000000000E+00 -1.930387115E+02  1.930387115E+02  0.000000000E+00  0.00000E+00  9.000E+00
      23     2     1     2     0     0 -2.541296658E-01  6.471372222E-01 -1.467945596E+02  1.468057413E+02  1.673195422E+00  0.00000E+00  9.000E+00
      11     1     3     3     0     0 -6.299034112E-01 -2.554502735E-01 -3.310297443E+01  3.310995242E+01  5.110000000E-04  0.00000E+00  9.000E+00
     -11     1     3     3     0     0  3.757737454E-01  9.025874957E-01 -1.136915852E+02  1.136957889E+02  5.110000000E-04  0.00000E+00  9.000E+00
       1     1     1     2   502     0  2.541296658E-01 -6.471372222E-01 -4.623594761E+01  4.624117451E+01  0.000000000E+00  0.00000E+00  9.000E+00
#rwgt            1          16  -894820.07677699835                3     5415854           0
<weights>
-.11145E+08
-.11967E+08
-.10176E+08
-.14544E+08
-.81532E+07
-.91702E+07
-.13910E+08
-.11220E+08
-.11072E+08
-.11180E+08
-.11224E+08
-.11331E+08
-.10932E+08
-.11197E+08
-.11203E+08
-.10339E+08
-.12105E+08
-.10561E+08
-.11703E+08
-.11785E+08
-.10490E+08
-.11144E+08
-.11010E+08
-.11372E+08
-.10820E+08
-.10822E+08
-.11307E+08
-.11485E+08
-.10529E+08
-.11177E+08
-.11031E+08
-.11092E+08
-.11179E+08
-.10574E+08
-.11733E+08
-.11128E+08
-.11150E+08
-.11165E+08
-.11133E+08
-.11244E+08
-.11047E+08
-.11216E+08
-.11069E+08
-.11083E+08
-.11203E+08
</weights>
</event>
<event>
      6  10001 -1.11453E+07  8.94427E-01 -1.00000E+00  2.21615E-01
      21    -1     0     0   502   501  0.000000000E+00  0.000000000E+00  1.216726037E-02  1.216726037E-02  0.000000000E+00  0.00000E+00  9.000E+00
       2    -1     0     0   501     0  0.000000000E+00  0.000000000E+00 -9.815834497E+02  9.815834497E+02  0.000000000E+00  0.00000E+00  9.000E+00
      23     2     1     2     0     0  1.544790883E+00 -1.205855815E+00 -8.889479140E+02  8.889515192E+02  1.602882216E+00  0.00000E+00  9.000E+00
      11     1     3     3     0     0 -1.666714026E-01 -5.247689684E-01 -1.052229536E+02  1.052243942E+02  5.110000000E-04  0.00000E+00  9.000E+00
     -11     1     3     3     0     0  1.711462286E+00 -6.810868470E-01 -7.837249604E+02  7.837271251E+02  5.110000000E-04  0.00000E+00  9.000E+00
       2     1     1     2   502     0 -1.544790883E+00  1.205855815E+00 -9.262336848E+01  9.264409779E+01  0.000000000E+00  0.00000E+00  9.000E+00
#rwgt            1          17  -32920242.930066813                3     5416270           0
<weights>
-.11145E+08
-.11462E+08
-.10629E+08
-.13931E+08
-.85167E+07
-.91702E+07
-.13910E+08
-.11139E+08
-.11151E+08
-.11164E+08
-.11133E+08
-.10902E+08
-.11416E+08
-.11152E+08
-.11144E+08
-.10739E+08
-.11744E+08
-.11609E+08
-.10523E+08
-.10417E+08
-.11678E+08
-.11132E+08
-.11155E+08
-.10883E+08
-.11386E+08
-.11717E+08
-.10808E+08
-.10479E+08
-.11941E+08
-.11044E+08
-.11216E+08
-.11229E+08
-.11057E+08
-.11852E+08
-.10322E+08
-.11031E+08
-.11252E+08
-.11108E+08
-.11197E+08
-.11351E+08
-.10965E+08
-.11110E+08
-.11182E+08
-.11140E+08
-.11151E+08
</weights>
</event>
<event>
      6  10001  1.11453E+07  8.94427E-01 -1.00000E+00  6.04730E-01
      -5    -1     0     0     0   502  0.000000000E+00  0.000000000E+00  2.547259708E+00  2.547259708E+00  0.000000000E+00  0.00000E+00  9.000E+00
      21    -1     0     0   502   501  0.000000000E+00  0.000000000E+00 -1.360693031E+00  1.360693031E+00  0.000000000E+00  0.00000E+00  9.000E+00
      23     2     1     2     0     0  3.322709982E-01 -2.572599599E-01 -5.110789892E-01  2.159070950E+00  2.055188296E+00  0.00000E+00  9.000E+00
      11     1     3     3     0     0  7.081036750E-01 -1.349585484E-01 -1.179622728E+00  1.382437943E+00  5.110000000E-04  0.00000E+00  9.000E+00
     -11     1     3     3     0     0 -3.758326768E-01 -1.223014115E-01  6.685437387E-01  7.766330072E-01  5.110000000E-04  0.00000E+00  9.000E+00
      -5     1     1     2     0   501 -3.322709982E-01  2.572599599E-01  1.697645666E+00  1.748881789E+00  0.000000000E+00  0.00000E+00  9.000E+00
#rwgt            1           1   7692.8570545174707                3     5417995           0
<weights>
0.11145E+08
0.15768E+08
0.76140E+07
0.84254E+07
0.11498E+08
0.15686E+08
0.39077E+07
0.11180E+08
0.11099E+08
0.10380E+08
0.10231E+08
0.10667E+08
0.10797E+08
0.10355E+08
0.10281E+08
0.11387E+08
0.11360E+08
0.12038E+08
0.12062E+08
0.12039E+08
0.11971E+08
0.12140E+08
0.12149E+08
0.11846E+08
0.11605E+08
0.11590E+08
0.11357E+08
0.11980E+08
0.11772E+08
0.12132E+08
0.12167E+08
0.11325E+08
0.11268E+08
0.11050E+08
0.11317E+08
0.11284E+08
0.11048E+08
0.11488E+08
0.10579E+08
0.11240E+08
0.11065E+08
0.11259E+08
0.11027E+08
0.12097E+08
0.10285E+08
</weights>
</event>
<event>
      7  10001  1.11453E+07  4.27536E+00 -1.00000E+00  2.53901E-01
       4    -1     0     0   501     0  0.000000000E+00  0.000000000E+00  1.696404621E-01  1.696404621E-01  0.000000000E+00  0.00000E+00  9.000E+00
       2    -1     0     0   502     0  0.000000000E+00  0.000000000E+00 -3.264102503E+02  3.264102503E+02  0.000000000E+00  0.00000E+00  9.000E+00
      23     2     1     2     0     0  4.153545705E-01 -9.337535050E-01 -7.764361972E+00  7.895945037E+00  1.008075478E+00  0.00000E+00  9.000E+00
      11     1     3     3     0     0  7.217550690E-02  2.181675502E-01 -1.469405749E+00  1.487265915E+00  5.110000000E-04  0.00000E+00  9.000E+00
     -11     1     3     3     0     0  3.431790636E-01 -1.151921055E+00 -6.294956223E+00  6.408679123E+00  5.110000000E-04  0.00000E+00  9.000E+00
       4     1     1     2   502     0 -4.671011896E+00  5.237758417E-01 -6.422917709E+01  6.440093076E+01  0.000000000E+00  0.00000E+00  9.000E+00
       2     1     1     2   501     0  4.255657326E+00  4.099776633E-01 -2.542470708E+02  2.542830150E+02  0.000000000E+00  0.00000E+00  9.000E+00
#rwgt            1          28   1289765.5622596527                3     5419730           0
<weights>
0.11145E+08
0.11990E+08
0.10137E+08
0.12622E+08
0.94410E+07
0.10513E+08
0.11849E+08
0.11266E+08
0.11027E+08
0.10842E+08
0.10959E+08
0.10948E+08
0.11100E+08
0.10926E+08
0.10953E+08
0.11209E+08
0.11118E+08
0.11320E+08
0.11337E+08
0.11329E+08
0.11311E+08
0.11320E+08
0.11380E+08
0.11156E+08
0.11398E+08
0.11327E+08
0.11040E+08
0.11284E+08
0.11195E+08
0.11246E+08
0.11335E+08
0.11083E+08
0.11267E+08
0.11176E+08
0.11116E+08
0.11333E+08
0.10978E+08
0.10721E+08
0.11563E+08
0.11087E+08
0.11198E+08
0.11146E+08
0.11146E+08
0.11385E+08
0.10908E+08
</weights>
</event>
<event>
      6  10001 -1.11453E+07  8.94427E-01 -1.00000E+00  5.84816E-01
       2    -1     0     0   501     0  0.000000000E+00  0.000000000E+00  1.012954563E+02  1.012954563E+02  0.000000000E+00  0.00000E+00  9.000E+00
      21    -1     0     0   502   501  0.000000000E+00  0.000000000E+00 -2.027010685E-02  2.027010685E-02  0.000000000E+00  0.00000E+00  9.000E+00
      23     2     1     2     0     0 -9.388689566E-02  2.659003643E-01  9.899294799E+01  9.901613319E+01  2.123996725E+00  0.00000E+00  9.000E+00
      11     1     3     3     0     0 -1.098484661E+00 -1.753307811E-02  5.142735742E+01  5.143909085E+01  5.110000000E-04  0.00000E+00  9.000E+00
     -11     1     3     3     0     0  1.004597765E+00  2.834334424E-01  4.756559057E+01  4.757704234E+01  5.110000000E-04  0.00000E+00  9.000E+00
       2     1     1     2   502     0  9.388689566E-02 -2.659003643E-01  2.282238166E+00  2.299593181E+00  0.000000000E+00  0.00000E+00  9.000E+00
#rwgt            1          24  -7069291.2234145552                3     5437901           0
<weights>
-.11145E+08
-.12309E+08
-.97898E+07
-.14968E+08
-.78443E+07
-.91658E+07
-.13909E+08
-.11175E+08
-.11116E+08
-.10830E+08
-.10823E+08
-.10964E+08
-.11012E+08
-.10848E+08
-.10833E+08
-.11225E+08
-.11206E+08
-.11453E+08
-.11492E+08
-.11481E+08
-.11430E+08
-.11490E+08
-.11511E+08
-.11396E+08
-.11329E+08
-.11285E+08
-.11326E+08
-.11425E+08
-.11363E+08
-.11467E+08
-.11502E+08
-.11180E+08
-.11217E+08
-.11138E+08
-.11176E+08
-.11212E+08
-.11097E+08
-.11120E+08
-.11096E+08
-.11163E+08
-.11130E+08
-.11183E+08
-.11105E+08
-.11496E+08
-.10822E+08
</weights>
</event>
<event>
      7  10001  1.11453E+07  1.07771E+00 -1.00000E+00  5.34446E-01
       2    -1     0     0   501     0  0.000000000E+00  0.000000000E+00  2.073667467E-01  2.073667467E-01  0.000000000E+00  0.00000E+00  9.000E+00
      -2    -1     0     0     0   502  0.000000000E+00  0.000000000E+00 -7.866509286E+00  7.866509286E+00  0.000000000E+00  0.00000E+00  9.000E+00
      23     2     1     2     0     0 -2.443758163E-01 -1.196704349E-01 -6.341122322E+00  6.455879333E+00  1.180891661E+00  0.00000E+00  9.000E+00
      11     1     3     3     0     0 -4.620189462E-01  2.237456436E-01 -5.475699178E+00  5.499709571E+00  5.110000000E-04  0.00000E+00  9.000E+00
     -11     1     3     3     0     0  2.176431299E-01 -3.434160785E-01 -8.654231435E-01  9.561697618E-01  5.110000000E-04  0.00000E+00  9.000E+00
      21     1     1     2   511   502  4.545400147E-01  1.385813121E-01 -1.324211232E+00  1.406892601E+00  2.580956828E-08  0.00000E+00  9.000E+00
      21     1     1     2   501   511 -2.101641984E-01 -1.891087715E-02  6.191014263E-03  2.111040981E-01  7.276190441E-09  0.00000E+00  9.000E+00
#rwgt            1          23   391326.73694214306                3     5439739           0
<weights>
0.11098E+08
0.13308E+08
0.98758E+07
0.10617E+08
0.10564E+08
0.12698E+08
0.94053E+07
0.11010E+08
0.11177E+08
0.10740E+08
0.10703E+08
0.10934E+08
0.10848E+08
0.10742E+08
0.10716E+08
0.11045E+08
0.11398E+08
0.11517E+08
0.11458E+08
0.11430E+08
0.11504E+08
0.11520E+08
0.11544E+08
0.11411E+08
0.11284E+08
0.11480E+08
0.10925E+08
0.11532E+08
0.11190E+08
0.11510E+08
0.11511E+08
0.11062E+08
0.11262E+08
0.11155E+08
0.11076E+08
0.10757E+08
0.11466E+08
0.11080E+08
0.10973E+08
0.11135E+08
0.11055E+08
0.11243E+08
0.10944E+08
0.11512E+08
0.10721E+08
</weights>
</event>
<event>
      6  10001 -1.11453E+07  8.94427E-01 -1.00000E+00  4.14419E-01
      21    -1     0     0   502   501  0.000000000E+00  0.000000000E+00  1.637783874E-02  1.637783874E-02  0.000000000E+00  0.00000E+00  9.000E+00
      -4    -1     0     0     0   502  0.000000000E+00  0.000000000E+00 -7.742656350E+01  7.742656350E+01  0.000000000E+00  0.00000E+00  9.000E+00
      23     2     1     2     0     0  1.631452876E-01  2.550215099E-01 -7.534778948E+01  7.535844371E+01  1.230449729E+00  0.00000E+00  9.000E+00
      11     1     3     3     0     0  5.957425641E-01 -3.126156969E-02 -2.185952851E+01  2.186766731E+01  5.110000000E-04  0.00000E+00  9.000E+00
     -11     1     3     3     0     0 -4.325972764E-01  2.862830796E-01 -5.348826096E+01  5.349077640E+01  5.110000000E-04  0.00000E+00  9.000E+00
      -4     1     1     2     0   501 -1.631452876E-01 -2.550215099E-01 -2.062396186E+00  2.084497633E+00  0.000000000E+00  0.00000E+00  9.000E+00
#rwgt            1          12  -2467501.1989889550                3     5441800           0
<weights>
-.11145E+08
-.12677E+08
-.94527E+07
-.15407E+08
-.75740E+07
-.91702E+07
-.13910E+08
-.11190E+08
-.11100E+08
-.11097E+08
-.11157E+08
-.11013E+08
-.11279E+08
-.11177E+08
-.11176E+08
-.11159E+08
-.11054E+08
-.11108E+08
-.11048E+08
-.11042E+08
-.11117E+08
-.11094E+08
-.11055E+08
-.11113E+08
-.11111E+08
-.11125E+08
-.11134E+08
-.11102E+08
-.11057E+08
-.11048E+08
-.11087E+08
-.11091E+08
-.11185E+08
-.11161E+08
-.11122E+08
-.11258E+08
-.11040E+08
-.10838E+08
-.11522E+08
-.11016E+08
-.11265E+08
-.11092E+08
-.11202E+08
-.11131E+08
-.11138E+08
</weights>
</event>
<event>
      6  10001 -1.11453E+07  8.94427E-01 -1.00000E+00  2.71729E-01
       2    -1     0     0   501     0  0.000000000E+00  0.000000000E+00  9.779354475E+02  9.779354475E+02  0.000000000E+00  0.00000E+00  9.000E+00
      21    -1     0     0   502   501  0.000000000E+00  0.000000000E+00 -5.338529436E-03  5.338529436E-03  0.000000000E+00  0.00000E+00  9.000E+00
      23     2     1     2     0     0 -1.629471332E-01 -3.005227911E-01  9.719355118E+02  9.719364491E+02  1.305867149E+00  0.00000E+00  9.000E+00
      11     1     3     3     0     0 -6.562308834E-01  9.697500647E-02  3.614807405E+02  3.614813491E+02  5.110000000E-04  0.00000E+00  9.000E+00
     -11     1     3     3     0     0  4.932837502E-01 -3.974977975E-01  6.104547713E+02  6.104551000E+02  5.110000000E-04  0.00000E+00  9.000E+00
       2     1     1     2   502     0  1.629471332E-01  3.005227911E-01  5.994597253E+00  6.004336927E+00  0.000000000E+00  0.00000E+00  9.000E+00
#rwgt            1          24  -65999207.534924440                3     5443352           0
<weights>
-.11145E+08
-.11049E+08
-.11097E+08
-.13439E+08
-.88920E+07
-.91638E+07
-.13909E+08
-.11173E+08
-.11119E+08
-.10825E+08
-.10816E+08
-.10962E+08
-.11008E+08
-.10843E+08
-.10826E+08
-.11226E+08
-.11209E+08
-.11460E+08
-.11500E+08
-.11488E+08
-.11436E+08
-.11498E+08
-.11518E+08
-.11407E+08
-.11329E+08
-.11287E+08
-.11344E+08
-.11432E+08
-.11369E+08
-.11476E+08
-.11511E+08
-.11183E+08
-.11217E+08
-.11138E+08
-.11177E+08
-.11209E+08
-.11100E+08
-.11129E+08
-.11087E+08
-.11165E+08
-.11128E+08
-.11185E+08
-.11104E+08
-.11503E+08
-.10816E+08
</weights>
</event>
<event>
      7  10001  1.11453E+07  3.61187E+00 -1.00000E+00  2.70854E-01
       2    -1     0     0   501     0  0.000000000E+00  0.000000000E+00  7.226397024E+01  7.226397024E+01  0.000000000E+00  0.00000E+00  9.000E+00
      21    -1     0     0   502   501  0.000000000E+00  0.000000000E+00 -8.343940106E-02  8.343940106E-02  0.000000000E+00  0.00000E+00  9.000E+00
      23     2     1     2     0     0  3.227111450E-01 -4.798819713E-01  6.305306375E+01  6.306714592E+01  1.200673725E+00  0.00000E+00  9.000E+00
      11     1     3     3     0     0  4.575948827E-03 -5.747888978E-01  1.271362110E+01  1.272660854E+01  5.110000000E-04  0.00000E+00  9.000E+00
     -11     1     3     3     0     0  3.181351962E-01  9.490692656E-02  5.033944265E+01  5.034053738E+01  5.110000000E-04  0.00000E+00  9.000E+00
       2     1     1     2   511     0 -3.725663259E-01 -9.778098172E-02  8.028393347E+00  8.037628165E+00  0.000000000E+00  0.00000E+00  9.000E+00
      21     1     1     2   502   511  4.985518087E-02  5.776629530E-01  1.099073737E+00  1.242635549E+00  1.867110146E-07  0.00000E+00  9.000E+00
#rwgt            2         248   4594521.1553974757                3     5444802           0
<weights>
0.11145E+08
0.11279E+08
0.10756E+08
0.13708E+08
0.86186E+07
0.91702E+07
0.13910E+08
0.11176E+08
0.11115E+08
0.10822E+08
0.10811E+08
0.10961E+08
0.11006E+08
0.10839E+08
0.10822E+08
0.11227E+08
0.11211E+08
0.11465E+08
0.11502E+08
0.11492E+08
0.11441E+08
0.11504E+08
0.11523E+08
0.11405E+08
0.11332E+08
0.11290E+08
0.11316E+08
0.11438E+08
0.11372E+08
0.11482E+08
0.11516E+08
0.11185E+08
0.11217E+08
0.11137E+08
0.11178E+08
0.11211E+08
0.11098E+08
0.11134E+08
0.11082E+08
0.11167E+08
0.11127E+08
0.11185E+08
0.11104E+08
0.11508E+08
0.10812E+08
</weights>
</event>
<event>
      7  10001  1.11453E+07  3.03529E+00 -1.00000E+00  2.90813E-01
      21    -1     0     0   512   501  0.000000000E+00  0.000000000E+00  5.536516408E+01  5.536516408E+01  0.000000000E+00  0.00000E+00  9.000E+00
       2    -1     0     0   501     0  0.000000000E+00  0.000000000E+00 -5.442765872E+01  5.442765872E+01  0.000000000E+00  0.00000E+00  9.000E+00
      23     2     1     2     0     0 -3.293843815E-01 -3.183121751E+00 -3.424428062E+01  3.441506331E+01  1.218634283E+00  0.00000E+00  9.000E+00
      11     1     3     3     0     0  2.856819184E-01 -1.271663819E+00 -1.800465222E+01  1.805176569E+01  5.110000000E-04  0.00000E+00  9.000E+00
     -11     1     3     3     0     0 -6.150662999E-01 -1.911457932E+00 -1.623962840E+01  1.636329762E+01  5.110000000E-04  0.00000E+00  9.000E+00
       2     1     1     2   502     0 -1.893625244E+00  1.116426236E+00 -1.999604265E+01  2.011650928E+01  0.000000000E+00  0.00000E+00  9.000E+00
      21     1     1     2   512   502  2.223009626E+00  2.066695515E+00  5.517782863E+01  5.526125021E+01  6.743495762E-07  0.00000E+00  9.000E+00
#rwgt            1          17   837990.17452228419                3     5445528           0
<weights>
0.11145E+08
0.10334E+08
0.12744E+08
0.87611E+07
0.12604E+08
0.11697E+08
0.10031E+08
0.11204E+08
0.11087E+08
0.11028E+08
0.11080E+08
0.11165E+08
0.10993E+08
0.11065E+08
0.11076E+08
0.11056E+08
0.11278E+08
0.11058E+08
0.11422E+08
0.11441E+08
0.11042E+08
0.11219E+08
0.11215E+08
0.11269E+08
0.11129E+08
0.11126E+08
0.11156E+08
0.11413E+08
0.10866E+08
0.11219E+08
0.11184E+08
0.11161E+08
0.11149E+08
0.11027E+08
0.11312E+08
0.11097E+08
0.11193E+08
0.11003E+08
0.11282E+08
0.11069E+08
0.11206E+08
0.11233E+08
0.11052E+08
0.11230E+08
0.11060E+08
</weights>
</event>
<event>
      6  10001 -1.11453E+07  8.94427E-01 -1.00000E+00  3.01542E-01
       2    -1     0     0   501     0  0.000000000E+00  0.000000000E+00  5.545062863E+02  5.545062863E+02  0.000000000E+00  0.00000E+00  9.000E+00
      21    -1     0     0   502   501  0.000000000E+00  0.000000000E+00 -8.318160925E-03  8.318160925E-03  0.000000000E+00  0.00000E+00  9.000E+00
      23     2     1     2     0     0  4.932242590E-01  6.503411383E-01  5.270547748E+02  5.270592757E+02  2.019481370E+00  0.00000E+00  9.000E+00
      11     1     3     3     0     0  1.053054201E+00  4.806489791E-01  1.663869701E+02  1.663909967E+02  5.110000000E-04  0.00000E+00  9.000E+00
     -11     1     3     3     0     0 -5.598299418E-01  1.696921592E-01  3.606678046E+02  3.606682790E+02  5.110000000E-04  0.00000E+00  9.000E+00
       2     1     1     2   502     0 -4.932242590E-01 -6.503411383E-01  2.744319343E+01  2.745532879E+01  0.000000000E+00  0.00000E+00  9.000E+00
#rwgt            1          24  -51100991.969017841                3     5450688           0
<weights>
-.11145E+08
-.11644E+08
-.10427E+08
-.14160E+08
-.83550E+07
-.91652E+07
-.13909E+08
-.11174E+08
-.11118E+08
-.10827E+08
-.10819E+08
-.10963E+08
-.11009E+08
-.10845E+08
-.10829E+08
-.11225E+08
-.11208E+08
-.11457E+08
-.11496E+08
-.11485E+08
-.11434E+08
-.11495E+08
-.11515E+08
-.11402E+08
-.11329E+08
-.11286E+08
-.11336E+08
-.11429E+08
-.11367E+08
-.11472E+08
-.11507E+08
-.11182E+08
-.11217E+08
-.11138E+08
-.11177E+08
-.11210E+08
-.11099E+08
-.11126E+08
-.11091E+08
-.11165E+08
-.11129E+08
-.11184E+08
-.11105E+08
-.11500E+08
-.10819E+08
</weights>
</event>
<event>
      6  10001 -1.11453E+07  8.94427E-01 -1.00000E+00  6.24084E-01
       4    -1     0     0   501     0  0.000000000E+00  0.000000000E+00  8.360477219E+01  8.360477219E+01  0.000000000E+00  0.00000E+00  9.000E+00
      21    -1     0     0   502   501  0.000000000E+00  0.000000000E+00 -1.472864652E-02  1.472864652E-02  0.000000000E+00  0.00000E+00  9.000E+00
      23     2     1     2     0     0 -1.486082561E-01  5.568424895E-01  7.213067183E+01  7.214564543E+01  1.352100938E+00  0.00000E+00  9.000E+00
      11     1     3     3     0     0 -2.103317304E-01  9.863351730E-01  4.352208537E+01  4.353376864E+01  5.110000000E-04  0.00000E+00  9.000E+00
     -11     1     3     3     0     0  6.172347429E-02 -4.294926835E-01  2.860858646E+01  2.861187679E+01  5.110000000E-04  0.00000E+00  9.000E+00
       4     1     1     2   502     0  1.486082561E-01 -5.568424895E-01  1.145937171E+01  1.147385541E+01  0.000000000E+00  0.00000E+00  9.000E+00
#rwgt            1          28  -2308441.7177487551                3     5451546           0
<weights>
-.11145E+08
-.12839E+08
-.92578E+07
-.15612E+08
-.74180E+07
-.91658E+07
-.13909E+08
-.11172E+08
-.11119E+08
-.10824E+08
-.10815E+08
-.10962E+08
-.11007E+08
-.10842E+08
-.10825E+08
-.11226E+08
-.11210E+08
-.11461E+08
-.11502E+08
-.11490E+08
-.11437E+08
-.11500E+08
-.11519E+08
-.11409E+08
-.11328E+08
-.11287E+08
-.11348E+08
-.11433E+08
-.11371E+08
-.11477E+08
-.11512E+08
-.11183E+08
-.11217E+08
-.11138E+08
-.11177E+08
-.11209E+08
-.11101E+08
-.11131E+08
-.11086E+08
-.11166E+08
-.11128E+08
-.11185E+08
-.11104E+08
-.11504E+08
-.10815E+08
</weights>
</event>
<event>
      6  10001  1.11453E+07  8.94427E-01 -1.00000E+00  5.60034E-01
       1    -1     0     0   501     0  0.000000000E+00  0.000000000E+00  1.102533098E+01  1.102533098E+01  0.000000000E+00  0.00000E+00  9.000E+00
      -1    -1     0     0     0   502  0.000000000E+00  0.000000000E+00 -2.277325249E-01  2.277325249E-01  0.000000000E+00  0.00000E+00  9.000E+00
      23     2     1     2     0     0  1.704984848E-01 -3.829067352E-01  1.042553958E+01  1.069260377E+01  2.337565551E+00  0.00000E+00  9.000E+00
      11     1     3     3     0     0  1.063062570E+00  2.123646647E-01  2.997943519E+00  3.187925091E+00  5.110000000E-04  0.00000E+00  9.000E+00
     -11     1     3     3     0     0 -8.925640854E-01 -5.952713999E-01  7.427596056E+00  7.504678682E+00  5.110000000E-04  0.00000E+00  9.000E+00
      21     1     1     2   501   502 -1.704984848E-01  3.829067352E-01  3.720588797E-01  5.604597319E-01  2.526614809E-08  0.00000E+00  9.000E+00
#rwgt            1          21   48496.894730284061                3     5452592           0
<weights>
0.11145E+08
0.15955E+08
0.75301E+07
0.23536E+07
0.16171E+08
0.20183E+08
-.29955E+07
0.99699E+07
0.12600E+08
0.10674E+08
0.10459E+08
0.10989E+08
0.10676E+08
0.10622E+08
0.10497E+08
0.11033E+08
0.11716E+08
0.11842E+08
0.11758E+08
0.11695E+08
0.11824E+08
0.11919E+08
0.11795E+08
0.12056E+08
0.11088E+08
0.11586E+08
0.11392E+08
0.11919E+08
0.11418E+08
0.11970E+08
0.11851E+08
0.11135E+08
0.11390E+08
0.11133E+08
0.11240E+08
0.10245E+08
0.12177E+08
0.11614E+08
0.10624E+08
0.11255E+08
0.11037E+08
0.11375E+08
0.10902E+08
0.11810E+08
0.10554E+08
</weights>
</event>
<event>
      7  10001  1.11453E+07  1.55418E+00 -1.00000E+00  4.08197E-01
       3    -1     0     0   501     0  0.000000000E+00  0.000000000E+00  1.763762691E+00  1.763762691E+00  0.000000000E+00  0.00000E+00  9.000E+00
      -3    -1     0     0     0   502  0.000000000E+00  0.000000000E+00 -1.590120765E+00  1.590120765E+00  0.000000000E+00  0.00000E+00  9.000E+00
      23     2     1     2     0     0  1.383181887E-01  2.601310624E-01  2.798075684E-01  1.912391389E+00  1.868729102E+00  0.00000E+00  9.000E+00
      11     1     3     3     0     0  6.144657280E-01  4.191897936E-01  8.653531456E-01  1.141106718E+00  5.110000000E-04  0.00000E+00  9.000E+00
     -11     1     3     3     0     0 -4.761475393E-01 -1.590587312E-01 -5.855455772E-01  7.712846707E-01  5.110000000E-04  0.00000E+00  9.000E+00
      21     1     1     2   511   502  2.890879133E-01 -3.231007914E-01  5.223394692E-01  6.788257980E-01  1.290478414E-08  0.00000E+00  9.000E+00
      21     1     1     2   501   511 -4.274061019E-01  6.296972903E-02 -6.285051121E-01  7.626662695E-01  3.071953077E-08  0.00000E+00  9.000E+00
#rwgt            1          25   43843.053323102482                3     5454646           0
<weights>
0.11145E+08
0.13830E+08
0.88647E+07
0.97529E+07
0.11105E+08
0.13638E+08
0.70519E+07
0.11178E+08
0.11107E+08
0.10727E+08
0.10712E+08
0.11054E+08
0.10797E+08
0.10736E+08
0.10715E+08
0.11281E+08
0.11072E+08
0.11162E+08
0.12468E+08
0.12301E+08
0.11176E+08
0.11602E+08
0.11717E+08
0.13011E+08
0.10544E+08
0.99649E+07
0.16484E+08
0.11123E+08
0.12139E+08
0.11589E+08
0.11703E+08
0.11293E+08
0.11151E+08
0.11149E+08
0.11182E+08
0.11233E+08
0.11077E+08
0.11300E+08
0.10889E+08
0.11225E+08
0.11073E+08
0.11239E+08
0.11047E+08
0.11629E+08
0.10707E+08
</weights>
</event>
<event>
      6  10001  1.11453E+07  8.94427E-01 -1.00000E+00  6.06529E-01
       4    -1     0     0   501     0  0.000000000E+00  0.000000000E+00  1.134245579E+01  1.134245579E+01  0.000000000E+00  0.00000E+00  9.000E+00
      21    -1     0     0   502   501  0.000000000E+00  0.000000000E+00 -7.039572964E+00  7.039572964E+00  0.000000000E+00  0.00000E+00  9.000E+00
      23     2     1     2     0     0 -6.478841691E-01 -2.635435810E-01  1.124601315E+01  1.140375764E+01  1.756037456E+00  0.00000E+00  9.000E+00
      11     1     3     3     0     0 -3.593664952E-01 -7.469767525E-01  1.002491526E+01  1.005912744E+01  5.110000000E-04  0.00000E+00  9.000E+00
     -11     1     3     3     0     0 -2.885176739E-01  4.834331715E-01  1.221097883E+00  1.344630202E+00  5.110000000E-04  0.00000E+00  9.000E+00
       4     1     1     2   502     0  6.478841691E-01  2.635435810E-01 -6.943130319E+00  6.978271114E+00  0.000000000E+00  0.00000E+00  9.000E+00
#rwgt            1          28   45231437.646960586                3     5458772           0
<weights>
0.11145E+08
0.11889E+08
0.10194E+08
0.12884E+08
0.92432E+07
0.10259E+08
0.12239E+08
0.11214E+08
0.11072E+08
0.10811E+08
0.10818E+08
0.10948E+08
0.11020E+08
0.10833E+08
0.10825E+08
0.11229E+08
0.11208E+08
0.11469E+08
0.11482E+08
0.11480E+08
0.11443E+08
0.11494E+08
0.11530E+08
0.11315E+08
0.11392E+08
0.11348E+08
0.11086E+08
0.11444E+08
0.11340E+08
0.11463E+08
0.11508E+08
0.11175E+08
0.11223E+08
0.11137E+08
0.11175E+08
0.11257E+08
0.11050E+08
0.11064E+08
0.11121E+08
0.11162E+08
0.11132E+08
0.11174E+08
0.11115E+08
0.11507E+08
0.10811E+08
</weights>
</event>
<event>
      6  10001 -1.11453E+07  8.94427E-01 -1.00000E+00  4.64023E-01
      -2    -1     0     0     0   502  0.000000000E+00  0.000000000E+00  1.033849056E+02  1.033849056E+02  0.000000000E+00  0.00000E+00  9.000E+00
      21    -1     0     0   502   501  0.000000000E+00  0.000000000E+00 -1.226639732E-02  1.226639732E-02  0.000000000E+00  0.00000E+00  9.000E+00
      23     2     1     2     0     0 -6.297782537E-01 -5.256826885E-01  7.078578433E+01  7.079999308E+01  1.157062591E+00  0.00000E+00  9.000E+00
      11     1     3     3     0     0 -6.714601013E-01 -5.017550381E-01  7.066535984E+01  7.067033110E+01  5.110000000E-04  0.00000E+00  9.000E+00
     -11     1     3     3     0     0  4.168184763E-02 -2.392765042E-02  1.204244925E-01  1.296619774E-01  5.110000000E-04  0.00000E+00  9.000E+00
      -2     1     1     2     0   501  6.297782537E-01  5.256826885E-01  3.258685490E+01  3.259717895E+01  0.000000000E+00  0.00000E+00  9.000E+00
#rwgt            1           7  -2410769.8571939794                3     5650751           0
<weights>
-.11145E+08
-.12505E+08
-.95819E+07
-.15205E+08
-.76777E+07
-.91664E+07
-.13909E+08
-.11181E+08
-.11109E+08
-.10841E+08
-.10841E+08
-.10969E+08
-.11022E+08
-.10862E+08
-.10850E+08
-.11223E+08
-.11196E+08
-.11436E+08
-.11470E+08
-.11460E+08
-.11414E+08
-.11468E+08
-.11492E+08
-.11369E+08
-.11328E+08
-.11280E+08
-.11290E+08
-.11406E+08
-.11347E+08
-.11443E+08
-.11481E+08
-.11174E+08
-.11217E+08
-.11140E+08
-.11172E+08
-.11217E+08
-.11092E+08
-.11096E+08
-.11122E+08
-.11157E+08
-.11135E+08
-.11180E+08
-.11109E+08
-.11478E+08
-.10838E+08
</weights>
</event>
<event>
      6  10001  1.11453E+07  8.94427E-01 -1.00000E+00  5.89559E-01
      -4    -1     0     0     0   502  0.000000000E+00  0.000000000E+00  2.276551212E-01  2.276551212E-01  0.000000000E+00  0.00000E+00  9.000E+00
       4    -1     0     0   501     0  0.000000000E+00  0.000000000E+00 -1.082175638E+01  1.082175638E+01  0.000000000E+00  0.00000E+00  9.000E+00
      23     2     1     2     0     0 -3.720542509E-01 -4.763209216E-01 -2.229926495E+00  2.663427632E+00  1.325129650E+00  0.00000E+00  9.000E+00
      11     1     3     3     0     0 -7.812389923E-01 -2.672608666E-02 -1.637845473E+00  1.814824152E+00  5.110000000E-04  0.00000E+00  9.000E+00
     -11     1     3     3     0     0  4.091847414E-01 -4.495948349E-01 -5.920810222E-01  8.486034799E-01  5.110000000E-04  0.00000E+00  9.000E+00
      21     1     1     2   501   502  3.720542509E-01  4.763209216E-01 -8.364174766E+00  8.385983872E+00  1.685873940E-07  0.00000E+00  9.000E+00
#rwgt            1           4   251308.34305398146                3     5651838           0
<weights>
0.11145E+08
0.12995E+08
0.93101E+07
0.12684E+08
0.91505E+07
0.11106E+08
0.10938E+08
0.11234E+08
0.11053E+08
0.10762E+08
0.10780E+08
0.10917E+08
0.11012E+08
0.10786E+08
0.10786E+08
0.11228E+08
0.11235E+08
0.11505E+08
0.11537E+08
0.11535E+08
0.11478E+08
0.11531E+08
0.11591E+08
0.11310E+08
0.11459E+08
0.11430E+08
0.11027E+08
0.11494E+08
0.11339E+08
0.11492E+08
0.11548E+08
0.11169E+08
0.11241E+08
0.11138E+08
0.11175E+08
0.11297E+08
0.11014E+08
0.11007E+08
0.11144E+08
0.11164E+08
0.11131E+08
0.11169E+08
0.11122E+08
0.11554E+08
0.10768E+08
</weights>
</event>
<event>
      7  10001  1.11453E+07  1.94110E+00 -1.00000E+00  3.59613E-01
       2    -1     0     0   501     0  0.000000000E+00  0.000000000E+00  1.889820782E-01  1.889820782E-01  0.000000000E+00  0.00000E+00  9.000E+00
      21    -1     0     0   502   501  0.000000000E+00  0.000000000E+00 -6.156281308E+01  6.156281308E+01  0.000000000E+00  0.00000E+00  9.000E+00
      23     2     1     2     0     0  8.017928037E-01  3.540418797E-01 -9.623843067E+00  9.941261647E+00  2.332833128E+00  0.00000E+00  9.000E+00
      11     1     3     3     0     0 -8.173630260E-01  1.396594877E-01 -2.555272492E+00  2.686448372E+00  5.110000000E-04  0.00000E+00  9.000E+00
     -11     1     3     3     0     0  1.619155830E+00  2.143823920E-01 -7.068570576E+00  7.254813275E+00  5.110000000E-04  0.00000E+00  9.000E+00
       2     1     1     2   511     0 -1.391361774E+00 -8.813502209E-01 -2.893386709E+01  2.898070618E+01  0.000000000E+00  0.00000E+00  9.000E+00
      21     1     1     2   502   511  5.895689703E-01  5.273083411E-01 -2.281612085E+01  2.282982733E+01  3.371747881E-07  0.00000E+00  9.000E+00
#rwgt            1          24   1518076.0418077856                3     5652704           0
<weights>
0.11145E+08
0.11525E+08
0.10677E+08
0.12317E+08
0.98100E+07
0.10381E+08
0.12051E+08
0.11274E+08
0.11018E+08
0.10827E+08
0.10956E+08
0.10944E+08
0.11095E+08
0.10921E+08
0.10948E+08
0.11211E+08
0.11111E+08
0.11321E+08
0.11339E+08
0.11331E+08
0.11312E+08
0.11322E+08
0.11380E+08
0.11151E+08
0.11407E+08
0.11332E+08
0.11036E+08
0.11287E+08
0.11189E+08
0.11243E+08
0.11336E+08
0.11076E+08
0.11276E+08
0.11177E+08
0.11115E+08
0.11344E+08
0.10968E+08
0.10687E+08
0.11606E+08
0.11084E+08
0.11201E+08
0.11146E+08
0.11145E+08
0.11392E+08
0.10900E+08
</weights>
</event>
<event>
      6  10001 -1.11453E+07  8.94427E-01 -1.00000E+00  3.42542E-01
       2    -1     0     0   501     0  0.000000000E+00  0.000000000E+00  9.684519663E+01  9.684519663E+01  0.000000000E+00  0.00000E+00  9.000E+00
      21    -1     0     0   502   501  0.000000000E+00  0.000000000E+00 -2.091165644E-02  2.091165644E-02  0.000000000E+00  0.00000E+00  9.000E+00
      23     2     1     2     0     0 -1.308973236E-01  1.057196190E+00  7.410015781E+01  7.411702582E+01  1.168473567E+00  0.00000E+00  9.000E+00
      11     1     3     3     0     0  1.805538517E-03  1.094884734E+00  7.300549772E+01  7.301370743E+01  5.110000000E-04  0.00000E+00  9.000E+00
     -11     1     3     3     0     0 -1.327028621E-01 -3.768854430E-02  1.094660098E+00  1.103318389E+00  5.110000000E-04  0.00000E+00  9.000E+00
       2     1     1     2   502     0  1.308973236E-01 -1.057196190E+00  2.272412716E+01  2.274908247E+01  0.000000000E+00  0.00000E+00  9.000E+00
#rwgt            1          24  -14793574.295826925                3     5823778           0
<weights>
-.11145E+08
-.12632E+08
-.94978E+07
-.15365E+08
-.76106E+07
-.91629E+07
-.13909E+08
-.11175E+08
-.11116E+08
-.10832E+08
-.10827E+08
-.10965E+08
-.11013E+08
-.10852E+08
-.10837E+08
-.11224E+08
-.11204E+08
-.11448E+08
-.11488E+08
-.11477E+08
-.11426E+08
-.11485E+08
-.11507E+08
-.11393E+08
-.11327E+08
-.11282E+08
-.11332E+08
-.11420E+08
-.11360E+08
-.11461E+08
-.11497E+08
-.11179E+08
-.11217E+08
-.11139E+08
-.11175E+08
-.11212E+08
-.11097E+08
-.11114E+08
-.11104E+08
-.11162E+08
-.11132E+08
-.11183E+08
-.11106E+08
-.11492E+08
-.10826E+08
</weights>
</event>
<event>
      6  10001  1.11453E+07  8.94427E-01 -1.00000E+00  6.07534E-01
       2    -1     0     0   501     0  0.000000000E+00  0.000000000E+00  7.952358844E-02  7.952358844E-02  0.000000000E+00  0.00000E+00  9.000E+00
      21    -1     0     0   502   501  0.000000000E+00  0.000000000E+00 -1.046292396E+01  1.046292396E+01  0.000000000E+00  0.00000E+00  9.000E+00
      23     2     1     2     0     0  2.522516490E-01 -6.814026722E-02 -5.147488455E+00  5.300019905E+00  1.235030209E+00  0.00000E+00  9.000E+00
      11     1     3     3     0     0  5.905742738E-01  2.173823025E-01 -4.280819149E+00  4.326828617E+00  5.110000000E-04  0.00000E+00  9.000E+00
     -11     1     3     3     0     0 -3.383226249E-01 -2.855225697E-01 -8.666693059E-01  9.731912881E-01  5.110000000E-04  0.00000E+00  9.000E+00
       2     1     1     2   502     0 -2.522516490E-01  6.814026722E-02 -5.235911920E+00  5.242427646E+00  0.000000000E+00  0.00000E+00  9.000E+00
#rwgt            1          24   235548.06308476394                3     5827385           0
<weights>
0.11119E+08
0.14826E+08
0.80489E+07
0.11070E+08
0.10310E+08
0.13674E+08
0.74842E+07
0.11255E+08
0.10975E+08
0.10366E+08
0.10342E+08
0.10731E+08
0.10765E+08
0.10373E+08
0.10351E+08
0.11276E+08
0.11371E+08
0.11899E+08
0.11968E+08
0.11970E+08
0.11834E+08
0.11972E+08
0.12063E+08
0.11550E+08
0.11699E+08
0.11645E+08
0.10976E+08
0.11885E+08
0.11604E+08
0.11929E+08
0.12003E+08
0.11221E+08
0.11279E+08
0.11098E+08
0.11195E+08
0.11329E+08
0.10946E+08
0.11108E+08
0.10838E+08
0.11242E+08
0.11013E+08
0.11195E+08
0.11041E+08
0.11978E+08
0.10339E+08
</weights>
</event>
<event>
      7  10001  1.11453E+07  3.72297E+00 -1.00000E+00  2.67639E-01
      21    -1     0     0   502   511  0.000000000E+00  0.000000000E+00  1.133998865E+00  1.133998865E+00  0.000000000E+00  0.00000E+00  9.000E+00
       2    -1     0     0   501     0  0.000000000E+00  0.000000000E+00 -1.623186325E+02  1.623186325E+02  0.000000000E+00  0.00000E+00  9.000E+00
      23     2     1     2     0     0  1.238191723E+00 -1.838622051E+00 -1.432974493E+02  1.433463231E+02  3.015911626E+00  0.00000E+00  9.000E+00
      11     1     3     3     0     0  1.909237035E+00 -1.584099116E+00 -1.333261548E+02  1.333492337E+02  5.110000000E-04  0.00000E+00  9.000E+00
     -11     1     3     3     0     0 -6.710453125E-01 -2.545229350E-01 -9.971294444E+00  9.997089421E+00  5.110000000E-04  0.00000E+00  9.000E+00
       2     1     1     2   502     0  2.906672001E-01  5.233192291E+00 -8.239981432E+00  9.765658348E+00  0.000000000E+00  0.00000E+00  9.000E+00
      21     1     1     2   501   511 -1.528858923E+00 -3.394570241E+00 -9.647202934E+00  1.034064994E+01  1.685873940E-07  0.00000E+00  9.000E+00
#rwgt            1          17   9012049.1888713464                3     5888329           0
<weights>
0.11145E+08
0.11559E+08
0.10595E+08
0.12551E+08
0.96104E+07
0.10248E+08
0.12255E+08
0.11141E+08
0.11149E+08
0.11160E+08
0.11169E+08
0.11147E+08
0.11140E+08
0.11168E+08
0.11168E+08
0.11246E+08
0.10967E+08
0.11133E+08
0.11091E+08
0.11090E+08
0.11132E+08
0.11113E+08
0.11126E+08
0.11226E+08
0.11019E+08
0.11071E+08
0.11177E+08
0.11156E+08
0.11048E+08
0.11123E+08
0.11121E+08
0.11100E+08
0.11180E+08
0.11128E+08
0.11157E+08
0.11143E+08
0.11142E+08
0.11155E+08
0.11137E+08
0.11123E+08
0.11160E+08
0.11187E+08
0.11100E+08
0.11120E+08
0.11167E+08
</weights>
</event>
<event>
      7  10001  1.11453E+07  4.94819E+00 -1.00000E+00  2.41656E-01
       3    -1     0     0   501     0  0.000000000E+00  0.000000000E+00  6.156735531E+01  6.156735531E+01  0.000000000E+00  0.00000E+00  9.000E+00
      21    -1     0     0   502   501  0.000000000E+00  0.000000000E+00 -3.956918188E-01  3.956918188E-01  0.000000000E+00  0.00000E+00  9.000E+00
      23     2     1     2     0     0 -3.236883546E-01 -4.509071130E-02  6.054178357E+01  6.055839430E+01  1.380128738E+00  0.00000E+00  9.000E+00
      11     1     3     3     0     0  8.114609677E-02 -5.649671740E-01  1.358107337E+01  1.359306171E+01  5.110000000E-04  0.00000E+00  9.000E+00
     -11     1     3     3     0     0 -4.048344514E-01  5.198764627E-01  4.696071020E+01  4.696533259E+01  5.110000000E-04  0.00000E+00  9.000E+00
       3     1     1     2   511     0 -2.227980023E-01  7.741171194E-02  7.978810227E-01  8.320130103E-01  0.000000000E+00  0.00000E+00  9.000E+00
      21     1     1     2   502   511  5.464863570E-01 -3.232100064E-02 -1.680011037E-01  5.726398137E-01  1.858169424E-07  0.00000E+00  9.000E+00
#rwgt            2         278   200588.93756223907                3     5899725           0
<weights>
0.11145E+08
0.11011E+08
0.11034E+08
0.13383E+08
0.88410E+07
0.91702E+07
0.13910E+08
0.11190E+08
0.11099E+08
0.10838E+08
0.10836E+08
0.10965E+08
0.11021E+08
0.10858E+08
0.10845E+08
0.11226E+08
0.11196E+08
0.11444E+08
0.11466E+08
0.11459E+08
0.11421E+08
0.11475E+08
0.11497E+08
0.11355E+08
0.11337E+08
0.11290E+08
0.11218E+08
0.11414E+08
0.11348E+08
0.11450E+08
0.11488E+08
0.11177E+08
0.11215E+08
0.11138E+08
0.11174E+08
0.11223E+08
0.11084E+08
0.11104E+08
0.11113E+08
0.11159E+08
0.11134E+08
0.11180E+08
0.11109E+08
0.11483E+08
0.10833E+08
</weights>
</event>
<event>
      6  10001 -1.11453E+07  8.94427E-01 -1.00000E+00  5.30515E-01
      21    -1     0     0   502   501  0.000000000E+00  0.000000000E+00  2.296970641E-02  2.296970641E-02  0.000000000E+00  0.00000E+00  9.000E+00
       4    -1     0     0   501     0  0.000000000E+00  0.000000000E+00 -3.577581421E+01  3.577581421E+01  0.000000000E+00  0.00000E+00  9.000E+00
      23     2     1     2     0     0 -1.887544954E-01  3.603085257E-01 -3.268909574E+01  3.270815178E+01  1.039597187E+00  0.00000E+00  9.000E+00
      11     1     3     3     0     0  7.847442167E-02 -2.739951850E-01 -3.728335883E+00  3.739213863E+00  5.110000000E-04  0.00000E+00  9.000E+00
     -11     1     3     3     0     0 -2.672289171E-01  6.343037107E-01 -2.896075986E+01  2.896893792E+01  5.110000000E-04  0.00000E+00  9.000E+00
       4     1     1     2   502     0  1.887544954E-01 -3.603085257E-01 -3.063748759E+00  3.090632128E+00  0.000000000E+00  0.00000E+00  9.000E+00
#rwgt            1          19  -7804975.2599734841                3     5900964           0
<weights>
-.11145E+08
-.13046E+08
-.91058E+07
-.15856E+08
-.72960E+07
-.91702E+07
-.13910E+08
-.11243E+08
-.11049E+08
-.10899E+08
-.10988E+08
-.10959E+08
-.11141E+08
-.10970E+08
-.10990E+08
-.11190E+08
-.11130E+08
-.11285E+08
-.11298E+08
-.11292E+08
-.11280E+08
-.11286E+08
-.11329E+08
-.11165E+08
-.11335E+08
-.11301E+08
-.11061E+08
-.11271E+08
-.11170E+08
-.11224E+08
-.11296E+08
-.11094E+08
-.11244E+08
-.11169E+08
-.11123E+08
-.11313E+08
-.10995E+08
-.10782E+08
-.11500E+08
-.11079E+08
-.11207E+08
-.11129E+08
-.11163E+08
-.11341E+08
-.10950E+08
</weights>
</event>
<event>
      6  10001 -1.11453E+07  8.94427E-01 -1.00000E+00  5.89015E-01
      21    -1     0     0   502   501  0.000000000E+00  0.000000000E+00  6.444840514E-02  6.444840514E-02  0.000000000E+00  0.00000E+00  9.000E+00
      -5    -1     0     0     0   502  0.000000000E+00  0.000000000E+00 -1.226365327E+01  1.226365327E+01  0.000000000E+00  0.00000E+00  9.000E+00
      23     2     1     2     0     0 -4.715214685E-01 -3.235519181E-02 -5.755828668E+00  5.867414702E+00  1.036152630E+00  0.00000E+00  9.000E+00
      11     1     3     3     0     0 -8.023163196E-01 -4.075052257E-03 -4.299697295E+00  4.373914170E+00  5.110000000E-04  0.00000E+00  9.000E+00
     -11     1     3     3     0     0  3.307948511E-01 -2.828013955E-02 -1.456131373E+00  1.493500531E+00  5.110000000E-04  0.00000E+00  9.000E+00
      -5     1     1     2     0   501  4.715214685E-01  3.235519181E-02 -6.443376195E+00  6.460686971E+00  0.000000000E+00  0.00000E+00  9.000E+00
#rwgt            1          11  -121880.87421697185                3     5903495           0
<weights>
-.11145E+08
-.11426E+08
-.10107E+08
-.17570E+08
-.63688E+07
-.70089E+07
-.17228E+08
-.11207E+08
-.11084E+08
-.10984E+08
-.11034E+08
-.11015E+08
-.11144E+08
-.11028E+08
-.11039E+08
-.11188E+08
-.11117E+08
-.11246E+08
-.11242E+08
-.11238E+08
-.11241E+08
-.11243E+08
-.11272E+08
-.11158E+08
-.11273E+08
-.11238E+08
-.11080E+08
-.11223E+08
-.11172E+08
-.11204E+08
-.11251E+08
-.11117E+08
-.11206E+08
-.11153E+08
-.11140E+08
-.11254E+08
-.11047E+08
-.10918E+08
-.11354E+08
-.11095E+08
-.11191E+08
-.11140E+08
-.11152E+08
-.11278E+08
-.11014E+08
</weights>
</event>
<event>
      6  10001  1.11453E+07  8.94427E-01 -1.00000E+00  6.05064E-01
      -4    -1     0     0     0   502  0.000000000E+00  0.000000000E+00  3.838586957E+01  3.838586957E+01  0.000000000E+00  0.00000E+00  9.000E+00
      21    -1     0     0   502   501  0.000000000E+00  0.000000000E+00 -6.104849699E-01  6.104849699E-01  0.000000000E+00  0.00000E+00  9.000E+00
      23     2     1     2     0     0 -6.710159550E-01 -3.232471455E-01  3.807208543E+01  3.819461736E+01  2.964853388E+00  0.00000E+00  9.000E+00
      11     1     3     3     0     0 -1.538594774E+00 -1.095258754E+00  2.229736352E+01  2.237720460E+01  5.110000000E-04  0.00000E+00  9.000E+00
     -11     1     3     3     0     0  8.675788191E-01  7.720116085E-01  1.577472191E+01  1.581741276E+01  5.110000000E-04  0.00000E+00  9.000E+00
      -4     1     1     2     0   501  6.710159550E-01  3.232471455E-01 -2.967008229E-01  8.017371809E-01  0.000000000E+00  0.00000E+00  9.000E+00
#rwgt            1           3   1454466.0308742104                3     5905116           0
<weights>
0.11145E+08
0.13785E+08
0.83036E+07
0.13139E+08
0.89129E+07
0.11577E+08
0.10216E+08
0.11190E+08
0.11098E+08
0.10681E+08
0.10648E+08
0.10900E+08
0.10918E+08
0.10689E+08
0.10661E+08
0.11253E+08
0.11279E+08
0.11630E+08
0.11682E+08
0.11672E+08
0.11592E+08
0.11691E+08
0.11713E+08
0.11525E+08
0.11421E+08
0.11374E+08
0.11316E+08
0.11606E+08
0.11492E+08
0.11670E+08
0.11707E+08
0.11220E+08
0.11239E+08
0.11133E+08
0.11197E+08
0.11226E+08
0.11091E+08
0.11219E+08
0.10972E+08
0.11210E+08
0.11089E+08
0.11205E+08
0.11082E+08
0.11684E+08
0.10654E+08
</weights>
</event>
<event>
      6  10001 -1.11453E+07  8.94427E-01 -1.00000E+00  2.33970E-01
      21    -1     0     0   502   501  0.000000000E+00  0.000000000E+00  1.171409172E-02  1.171409172E-02  0.000000000E+00  0.00000E+00  9.000E+00
       2    -1     0     0   501     0  0.000000000E+00  0.000000000E+00 -8.787869534E+02  8.787869534E+02  0.000000000E+00  0.00000E+00  9.000E+00
      23     2     1     2     0     0 -1.101533770E+00 -3.721152487E-01 -8.466381945E+02  8.466405970E+02  1.648125416E+00  0.00000E+00  9.000E+00
      11     1     3     3     0     0 -1.417855564E-01 -3.012226895E-01 -6.467682588E+02  6.467683445E+02  5.110000000E-04  0.00000E+00  9.000E+00
     -11     1     3     3     0     0 -9.597482139E-01 -7.089255919E-02 -1.998699357E+02  1.998722525E+02  5.110000000E-04  0.00000E+00  9.000E+00
       2     1     1     2   502     0  1.101533770E+00  3.721152487E-01 -3.213704480E+01  3.215807045E+01  0.000000000E+00  0.00000E+00  9.000E+00
#rwgt            1          17  -55316083.170345992                3     5968780           0
<weights>
-.11145E+08
-.11477E+08
-.10624E+08
-.13949E+08
-.85125E+07
-.91702E+07
-.13910E+08
-.11137E+08
-.11153E+08
-.11163E+08
-.11135E+08
-.10909E+08
-.11407E+08
-.11152E+08
-.11145E+08
-.10855E+08
-.11565E+08
-.11600E+08
-.10533E+08
-.10432E+08
-.11665E+08
-.11127E+08
-.11161E+08
-.10905E+08
-.11362E+08
-.11653E+08
-.10844E+08
-.10513E+08
-.11895E+08
-.11046E+08
-.11215E+08
-.11180E+08
-.11107E+08
-.11805E+08
-.10372E+08
-.11041E+08
-.11242E+08
-.11113E+08
-.11191E+08
-.11338E+08
-.10976E+08
-.11113E+08
-.11179E+08
-.11140E+08
-.11151E+08
</weights>
</event>
<event>
      6  10001 -1.11453E+07  8.94427E-01 -1.00000E+00  6.55779E-01
       3    -1     0     0   501     0  0.000000000E+00  0.000000000E+00  5.999326927E+02  5.999326927E+02  0.000000000E+00  0.00000E+00  9.000E+00
      21    -1     0     0   502   501  0.000000000E+00  0.000000000E+00 -1.578442466E-03  1.578442466E-03  0.000000000E+00  0.00000E+00  9.000E+00
      23     2     1     2     0     0 -1.230212067E-01 -4.985055520E-01  5.074989236E+02  5.075006544E+02  1.221915385E+00  0.00000E+00  9.000E+00
      11     1     3     3     0     0  3.860999793E-01 -5.686525859E-01  3.901402691E+02  3.901408746E+02  5.110000000E-04  0.00000E+00  9.000E+00
     -11     1     3     3     0     0 -5.091211860E-01  7.014703389E-02  1.173586545E+02  1.173597798E+02  5.110000000E-04  0.00000E+00  9.000E+00
       3     1     1     2   502     0  1.230212067E-01  4.985055520E-01  9.243219065E+01  9.243361677E+01  0.000000000E+00  0.00000E+00  9.000E+00
#rwgt            1          26  -365779.09944656875                3     5969152           0
<weights>
-.11145E+08
-.13430E+08
-.82181E+07
-.16344E+08
-.65854E+07
-.91579E+07
-.13909E+08
-.11186E+08
-.11104E+08
-.10876E+08
-.10889E+08
-.10983E+08
-.11047E+08
-.10905E+08
-.10896E+08
-.11219E+08
-.11170E+08
-.11390E+08
-.11410E+08
-.11401E+08
-.11372E+08
-.11414E+08
-.11435E+08
-.11321E+08
-.11309E+08
-.11256E+08
-.11248E+08
-.11356E+08
-.11311E+08
-.11386E+08
-.11426E+08
-.11162E+08
-.11213E+08
-.11143E+08
-.11164E+08
-.11220E+08
-.11086E+08
-.11060E+08
-.11178E+08
-.11143E+08
-.11148E+08
-.11174E+08
-.11115E+08
-.11429E+08
-.10881E+08
</weights>
</event>
<event>
      7  10001  1.11453E+07  8.94427E-01 -1.00000E+00  6.07649E-01
      -5    -1     0     0     0   502  0.000000000E+00  0.000000000E+00  1.499188853E+01  1.499188853E+01  0.000000000E+00  0.00000E+00  9.000E+00
       2    -1     0     0   502     0  0.000000000E+00  0.000000000E+00 -8.175045503E-02  8.175045503E-02  0.000000000E+00  0.00000E+00  9.000E+00
      23     2     1     2     0     0 -7.522670214E-03  4.437130134E-01  5.449028982E+00  5.579666454E+00  1.115268158E+00  0.00000E+00  9.000E+00
      11     1     3     3     0     0  5.228966886E-01  2.930065140E-01  2.036589975E+00  2.122963200E+00  5.110000000E-04  0.00000E+00  9.000E+00
     -11     1     3     3     0     0 -5.304193588E-01  1.507064995E-01  3.412439007E+00  3.456703253E+00  5.110000000E-04  0.00000E+00  9.000E+00
      -5     1     1     2     0   501  9.724572385E-02 -4.127433919E-01  9.278351573E+00  9.288036485E+00  0.000000000E+00  0.00000E+00  9.000E+00
       2     1     1     2   501     0 -8.972305364E-02 -3.096962154E-02  1.827575210E-01  2.059360466E-01  0.000000000E+00  0.00000E+00  9.000E+00
#rwgt            2          17   15528.980420338379                3     5975927           0
<weights>
0.11145E+08
0.12915E+08
0.90242E+07
0.15697E+08
0.72307E+07
0.91702E+07
0.13910E+08
0.11057E+08
0.11270E+08
0.10816E+08
0.10790E+08
0.10967E+08
0.10982E+08
0.10829E+08
0.10803E+08
0.11207E+08
0.11253E+08
0.11488E+08
0.11513E+08
0.11499E+08
0.11465E+08
0.11529E+08
0.11535E+08
0.11448E+08
0.11309E+08
0.11314E+08
0.11299E+08
0.11472E+08
0.11365E+08
0.11512E+08
0.11533E+08
0.11177E+08
0.11232E+08
0.11136E+08
0.11185E+08
0.11124E+08
0.11197E+08
0.11165E+08
0.11054E+08
0.11171E+08
0.11122E+08
0.11200E+08
0.11088E+08
0.11524E+08
0.10799E+08
</weights>
</event>
<event>
      7  10001  1.11453E+07  8.94427E-01 -1.00000E+00  6.07649E-01
       1    -1     0     0   501     0  0.000000000E+00  0.000000000E+00  1.231192683E+02  1.231192683E+02  0.000000000E+00  0.00000E+00  9.000E+00
      21    -1     0     0   511   502  0.000000000E+00  0.000000000E+00 -2.709479845E-01  2.709479845E-01  0.000000000E+00  0.00000E+00  9.000E+00
      23     2     1     2     0     0  9.525207092E-02  2.584014848E-01  1.227840252E+02  1.227996080E+02  1.936762490E+00  0.00000E+00  9.000E+00
      11     1     3     3     0     0 -3.531327174E-01 -2.027623250E-01  5.995849715E+00  6.009661334E+00  5.110000000E-04  0.00000E+00  9.000E+00
     -11     1     3     3     0     0  4.483847883E-01  4.611638098E-01  1.167881755E+02  1.167899467E+02  5.110000000E-04  0.00000E+00  9.000E+00
      21     1     1     2   501   502  6.157947828E-02 -2.416911155E-01 -1.745235906E-01  3.044094465E-01  1.893953855E-07  0.00000E+00  9.000E+00
       1     1     1     2   511     0 -1.568315492E-01 -1.671036938E-02  2.388187071E-01  2.861987878E-01  0.000000000E+00  0.00000E+00  9.000E+00
#rwgt            2         219   285066.16187419725                3     5977679           0
<weights>
0.11145E+08
0.10777E+08
0.11338E+08
0.13098E+08
0.90847E+07
0.91702E+07
0.13910E+08
0.11186E+08
0.11102E+08
0.10833E+08
0.10829E+08
0.10964E+08
0.11017E+08
0.10853E+08
0.10839E+08
0.11227E+08
0.11200E+08
0.11450E+08
0.11476E+08
0.11468E+08
0.11427E+08
0.11483E+08
0.11504E+08
0.11367E+08
0.11336E+08
0.11290E+08
0.11240E+08
0.11421E+08
0.11355E+08
0.11459E+08
0.11495E+08
0.11179E+08
0.11216E+08
0.11138E+08
0.11175E+08
0.11220E+08
0.11088E+08
0.11112E+08
0.11105E+08
0.11161E+08
0.11132E+08
0.11181E+08
0.11108E+08
0.11490E+08
0.10827E+08
</weights>
</event>
<event>
      6  10001 -1.11453E+07  8.94427E-01 -1.00000E+00  6.53373E-01
      21    -1     0     0   502   501  0.000000000E+00  0.000000000E+00  1.953101672E+02  1.953101672E+02  0.000000000E+00  0.00000E+00  9.000E+00
       2    -1     0     0   501     0  0.000000000E+00  0.000000000E+00 -9.168431099E-03  9.168431099E-03  0.000000000E+00  0.00000E+00  9.000E+00
      23     2     1     2     0     0 -1.019892948E-01  5.479403630E-01  1.645261199E+02  1.645394102E+02  2.015623354E+00  0.00000E+00  9.000E+00
      11     1     3     3     0     0 -4.598160407E-01  8.681725868E-01  3.900002334E+01  3.901239515E+01  5.110000000E-04  0.00000E+00  9.000E+00
     -11     1     3     3     0     0  3.578267459E-01 -3.202322237E-01  1.255260966E+02  1.255270151E+02  5.110000000E-04  0.00000E+00  9.000E+00
       2     1     1     2   502     0  1.019892948E-01 -5.479403630E-01  3.077487887E+01  3.077992544E+01  0.000000000E+00  0.00000E+00  9.000E+00
#rwgt            1          17  -78313.756271000384                3     5977892           0
<weights>
-.11145E+08
-.12110E+08
-.98881E+07
-.14724E+08
-.79231E+07
-.91664E+07
-.13909E+08
-.11159E+08
-.11137E+08
-.10820E+08
-.10807E+08
-.10961E+08
-.11002E+08
-.10837E+08
-.10818E+08
-.11224E+08
-.11217E+08
-.11469E+08
-.11506E+08
-.11494E+08
-.11445E+08
-.11508E+08
-.11526E+08
-.11414E+08
-.11328E+08
-.11293E+08
-.11326E+08
-.11443E+08
-.11373E+08
-.11487E+08
-.11520E+08
-.11184E+08
-.11219E+08
-.11137E+08
-.11179E+08
-.11199E+08
-.11112E+08
-.11140E+08
-.11077E+08
-.11168E+08
-.11126E+08
-.11187E+08
-.11101E+08
-.11511E+08
-.10809E+08
</weights>
</event>
<event>
      6  10001 -1.11453E+07  8.94427E-01 -1.00000E+00  4.94085E-01
       2    -1     0     0   501     0  0.000000000E+00  0.000000000E+00  5.401169823E+01  5.401169823E+01  0.000000000E+00  0.00000E+00  9.000E+00
      21    -1     0     0   502   501  0.000000000E+00  0.000000000E+00 -1.719638720E-02  1.719638720E-02  0.000000000E+00  0.00000E+00  9.000E+00
      23     2     1     2     0     0  2.484920372E-01 -5.924176375E-01  3.052105554E+01  3.054665903E+01  1.072771891E+00  0.00000E+00  9.000E+00
      11     1     3     3     0     0  5.358245925E-01 -6.113344122E-01  1.432741237E+01  1.435045585E+01  5.110000000E-04  0.00000E+00  9.000E+00
     -11     1     3     3     0     0 -2.873325554E-01  1.891677470E-02  1.619364317E+01  1.619620318E+01  5.110000000E-04  0.00000E+00  9.000E+00
       2     1     1     2   502     0 -2.484920372E-01  5.924176375E-01  2.347344630E+01  2.348223559E+01  0.000000000E+00  0.00000E+00  9.000E+00
#rwgt            1          24  -7331628.8955177395                3     5978555           0
<weights>
-.11145E+08
-.12746E+08
-.93957E+07
-.15501E+08
-.75286E+07
-.91645E+07
-.13909E+08
-.11173E+08
-.11118E+08
-.10826E+08
-.10818E+08
-.10963E+08
-.11009E+08
-.10845E+08
-.10828E+08
-.11225E+08
-.11209E+08
-.11458E+08
-.11498E+08
-.11486E+08
-.11435E+08
-.11496E+08
-.11516E+08
-.11404E+08
-.11328E+08
-.11286E+08
-.11341E+08
-.11430E+08
-.11368E+08
-.11473E+08
-.11508E+08
-.11182E+08
-.11217E+08
-.11138E+08
-.11177E+08
-.11210E+08
-.11100E+08
-.11127E+08
-.11089E+08
-.11165E+08
-.11129E+08
-.11184E+08
-.11105E+08
-.11501E+08
-.10818E+08
</weights>
</event>
<event>
      6  10001 -1.11453E+07  8.94427E-01 -1.00000E+00  4.69766E-01
      -2    -1     0     0     0   502  0.000000000E+00  0.000000000E+00  1.299376589E-02  1.299376589E-02  0.000000000E+00  0.00000E+00  9.000E+00
       2    -1     0     0   501     0  0.000000000E+00  0.000000000E+00 -2.343050489E+02  2.343050489E+02  0.000000000E+00  0.00000E+00  9.000E+00
      23     2     1     2     0     0 -5.262564240E-01 -5.485569191E-01 -2.067134017E+02  2.067289146E+02  2.415748618E+00  0.00000E+00  9.000E+00
      11     1     3     3     0     0  3.431257744E-01  1.694193962E-01 -1.645347754E+02  1.645352204E+02  5.110000000E-04  0.00000E+00  9.000E+00
     -11     1     3     3     0     0 -8.693821983E-01 -7.179763153E-01 -4.217862628E+01  4.219369420E+01  5.110000000E-04  0.00000E+00  9.000E+00
      21     1     1     2   501   502  5.262564240E-01  5.485569191E-01 -2.757865346E+01  2.758912807E+01  6.743495762E-07  0.00000E+00  9.000E+00
#rwgt            1           8  -1965877.5984735526                3     5980830           0
<weights>
-.11145E+08
-.12511E+08
-.96118E+07
-.15206E+08
-.77014E+07
-.91702E+07
-.13910E+08
-.11128E+08
-.11162E+08
-.11173E+08
-.11167E+08
-.11084E+08
-.11223E+08
-.11169E+08
-.11167E+08
-.11319E+08
-.10875E+08
-.11270E+08
-.10913E+08
-.10887E+08
-.11283E+08
-.11103E+08
-.11144E+08
-.11162E+08
-.11075E+08
-.11155E+08
-.11129E+08
-.10990E+08
-.11257E+08
-.11097E+08
-.11145E+08
-.11051E+08
-.11232E+08
-.11267E+08
-.10983E+08
-.11134E+08
-.11152E+08
-.11171E+08
-.11120E+08
-.11174E+08
-.11116E+08
-.11161E+08
-.11128E+08
-.11118E+08
-.11171E+08
</weights>
</event>
<event>
      7  10001  1.11453E+07  9.68269E-01 -1.00000E+00  5.75208E-01
       3    -1     0     0   501     0  0.000000000E+00  0.000000000E+00  1.654232000E-01  1.654232000E-01  0.000000000E+00  0.00000E+00  9.000E+00
      21    -1     0     0   511   502  0.000000000E+00  0.000000000E+00 -6.137729290E+01  6.137729290E+01  0.000000000E+00  0.00000E+00  9.000E+00
      23     2     1     2     0     0  7.345046202E-01 -1.079453070E-01 -5.598616887E+00  5.882377729E+00  1.645207425E+00  0.00000E+00  9.000E+00
      11     1     3     3     0     0  5.364112390E-01  2.942808878E-01 -5.776702182E-01  8.414519596E-01  5.110000000E-04  0.00000E+00  9.000E+00
     -11     1     3     3     0     0  1.980933812E-01 -4.022261948E-01 -5.020946669E+00  5.040925769E+00  5.110000000E-04  0.00000E+00  9.000E+00
      21     1     1     2   501   502  8.157141089E-02 -4.131725720E-01 -4.524766919E+01  4.524962909E+01  8.259061849E-07  0.00000E+00  9.000E+00
       3     1     1     2   511     0 -8.160760311E-01  5.211178790E-01 -1.036558362E+01  1.041070928E+01  0.000000000E+00  0.00000E+00  9.000E+00
#rwgt            1          25   151929.47673182850                3     5983307           0
<weights>
0.11145E+08
0.12193E+08
0.10032E+08
0.12397E+08
0.95709E+07
0.10783E+08
0.11434E+08
0.11206E+08
0.11084E+08
0.10883E+08
0.11066E+08
0.11262E+08
0.10794E+08
0.10992E+08
0.11003E+08
0.12042E+08
0.99132E+07
0.11383E+08
0.11067E+08
0.11138E+08
0.11276E+08
0.11225E+08
0.11366E+08
0.10919E+08
0.11288E+08
0.96511E+07
0.11747E+08
0.10429E+08
0.12191E+08
0.11131E+08
0.11341E+08
0.11194E+08
0.11137E+08
0.11232E+08
0.11068E+08
0.11286E+08
0.11018E+08
0.10849E+08
0.11438E+08
0.11124E+08
0.11155E+08
0.11250E+08
0.11033E+08
0.11313E+08
0.10978E+08
</weights>
</event>
<event>
      6  10001  1.11453E+07  8.94427E-01 -1.00000E+00  6.00709E-01
      -2    -1     0     0     0   502  0.000000000E+00  0.000000000E+00  2.181545021E+00  2.181545021E+00  0.000000000E+00  0.00000E+00  9.000E+00
       2    -1     0     0   501     0  0.000000000E+00  0.000000000E+00 -1.499820236E+00  1.499820236E+00  0.000000000E+00  0.00000E+00  9.000E+00
      23     2     1     2     0     0  2.039015144E-01  4.394400920E-01  6.290694518E-01  3.194070678E+00  3.093812486E+00  0.00000E+00  9.000E+00
      11     1     3     3     0     0  3.911834101E-01 -5.900097972E-01 -1.019680868E+00  1.241324033E+00  5.110000000E-04  0.00000E+00  9.000E+00
     -11     1     3     3     0     0 -1.872818957E-01  1.029449889E+00  1.648750320E+00  1.952746645E+00  5.110000000E-04  0.00000E+00  9.000E+00
      21     1     1     2   501   502 -2.039015144E-01 -4.394400920E-01  5.265533352E-02  4.872945784E-01  2.568323581E-08  0.00000E+00  9.000E+00
#rwgt            1           8   534300.91639724129                3     5987853           0
<weights>
0.11145E+08
0.15976E+08
0.70953E+07
0.85969E+07
0.12113E+08
0.16158E+08
0.31832E+07
0.10682E+08
0.11644E+08
0.10739E+08
0.10610E+08
0.10999E+08
0.10788E+08
0.10713E+08
0.10638E+08
0.11065E+08
0.11583E+08
0.11658E+08
0.11673E+08
0.11646E+08
0.11633E+08
0.11746E+08
0.11676E+08
0.11665E+08
0.11280E+08
0.11510E+08
0.11099E+08
0.11788E+08
0.11301E+08
0.11772E+08
0.11701E+08
0.11173E+08
0.11298E+08
0.11113E+08
0.11249E+08
0.10632E+08
0.11722E+08
0.11411E+08
0.10787E+08
0.11211E+08
0.11079E+08
0.11314E+08
0.10966E+08
0.11680E+08
0.10666E+08
</weights>
</event>
<event>
      7  10001  1.11453E+07  5.78860E+00 -1.00000E+00  2.26767E-01
       2    -1     0     0   501     0  0.000000000E+00  0.000000000E+00  3.977257755E+02  3.977257755E+02  0.000000000E+00  0.00000E+00  9.000E+00
      21    -1     0     0   502   511  0.000000000E+00  0.000000000E+00 -1.160889765E+00  1.160889765E+00  0.000000000E+00  0.00000E+00  9.000E+00
      23     2     1     2     0     0 -6.726108309E-01  1.662203669E-01  3.031869051E+02  3.032168648E+02  4.205668827E+00  0.00000E+00  9.000E+00
      11     1     3     3     0     0 -1.689521188E+00 -9.187906059E-01  2.544740019E+02  2.544812691E+02  5.110000000E-04  0.00000E+00  9.000E+00
     -11     1     3     3     0     0  1.016910357E+00  1.085010973E+00  4.871290322E+01  4.873559577E+01  5.110000000E-04  0.00000E+00  9.000E+00
       2     1     1     2   502     0 -1.433865806E+00  5.225504217E+00  8.654510074E+01  8.671456814E+01  0.000000000E+00  0.00000E+00  9.000E+00
      21     1     1     2   501   511  2.106476637E+00 -5.391724584E+00  6.832879840E+00  8.955232254E+00  2.795705652E-07  0.00000E+00  9.000E+00
#rwgt            1          24   11434706.825643392                3     5989622           0
<weights>
0.11145E+08
0.12556E+08
0.94508E+07
0.13003E+08
0.91556E+07
0.10750E+08
0.11484E+08
0.11157E+08
0.11136E+08
0.10784E+08
0.10753E+08
0.10946E+08
0.10973E+08
0.10794E+08
0.10767E+08
0.11233E+08
0.11241E+08
0.11520E+08
0.11573E+08
0.11558E+08
0.11492E+08
0.11572E+08
0.11582E+08
0.11491E+08
0.11335E+08
0.11304E+08
0.11441E+08
0.11497E+08
0.11423E+08
0.11556E+08
0.11584E+08
0.11203E+08
0.11219E+08
0.11133E+08
0.11190E+08
0.11195E+08
0.11117E+08
0.11206E+08
0.11010E+08
0.11185E+08
0.11111E+08
0.11195E+08
0.11094E+08
0.11566E+08
0.10761E+08
</weights>
</event>
<event>
      6  10001  1.11453E+07  8.94427E-01 -1.00000E+00  6.02262E-01
       1    -1     0     0   501     0  0.000000000E+00  0.000000000E+00  3.225401923E-01  3.225401923E-01  0.000000000E+00  0.00000E+00  9.000E+00
      -1    -1     0     0     0   502  0.000000000E+00  0.000000000E+00 -3.313054118E+01  3.313054118E+01  0.000000000E+00  0.00000E+00  9.000E+00
      23     2     1     2     0     0  2.444392030E-01  6.227371798E-01 -3.871058742E+00  4.508406929E+00  2.212031901E+00  0.00000E+00  9.000E+00
      11     1     3     3     0     0 -7.628310820E-01  7.186155853E-01 -9.406802827E-01  1.408261082E+00  5.110000000E-04  0.00000E+00  9.000E+00
     -11     1     3     3     0     0  1.007270285E+00 -9.587840545E-02 -2.930378460E+00  3.100145847E+00  5.110000000E-04  0.00000E+00  9.000E+00
      21     1     1     2   501   502 -2.444392030E-01 -6.227371798E-01 -2.893694225E+01  2.894467445E+01  4.768371582E-07  0.00000E+00  9.000E+00
#rwgt            1          21   158377.63125640876                3     6012455           0
<weights>
0.11145E+08
0.11820E+08
0.10446E+08
0.12278E+08
0.97403E+07
0.10582E+08
0.11743E+08
0.11233E+08
0.11057E+08
0.10907E+08
0.10973E+08
0.11012E+08
0.11035E+08
0.10957E+08
0.10971E+08
0.11112E+08
0.11255E+08
0.11333E+08
0.11296E+08
0.11273E+08
0.11334E+08
0.11310E+08
0.11362E+08
0.11230E+08
0.11302E+08
0.11348E+08
0.11030E+08
0.11305E+08
0.11127E+08
0.11267E+08
0.11317E+08
0.11077E+08
0.11267E+08
0.11236E+08
0.11064E+08
0.11044E+08
0.11252E+08
0.10880E+08
0.11373E+08
0.11118E+08
0.11161E+08
0.11242E+08
0.11042E+08
0.11349E+08
0.10948E+08
</weights>
</event>
<event>
      6  10001 -1.11453E+07  8.94427E-01 -1.00000E+00  3.01141E-01
      21    -1     0     0   502   501  0.000000000E+00  0.000000000E+00  6.024316782E-03  6.024316782E-03  0.000000000E+00  0.00000E+00  9.000E+00
       2    -1     0     0   501     0  0.000000000E+00  0.000000000E+00 -4.412668722E+02  4.412668722E+02  0.000000000E+00  0.00000E+00  9.000E+00
      23     2     1     2     0     0  1.235933759E+00  6.843589032E-01 -2.372073113E+02  2.372144695E+02  1.183252312E+00  0.00000E+00  9.000E+00
      11     1     3     3     0     0  9.437246743E-01  6.476532085E-01 -9.559602683E+01  9.560287871E+01  5.110000000E-04  0.00000E+00  9.000E+00
     -11     1     3     3     0     0  2.922090843E-01  3.670569470E-02 -1.416112845E+02  1.416115908E+02  5.110000000E-04  0.00000E+00  9.000E+00
       2     1     1     2   502     0 -1.235933759E+00 -6.843589032E-01 -2.040535365E+02  2.040584270E+02  0.000000000E+00  0.00000E+00  9.000E+00
#rwgt            1          17  -7785777.1102477359                3     6015943           0
<weights>
-.11145E+08
-.12150E+08
-.99391E+07
-.14767E+08
-.79638E+07
-.91702E+07
-.13910E+08
-.11129E+08
-.11161E+08
-.11166E+08
-.11153E+08
-.10999E+08
-.11312E+08
-.11158E+08
-.11155E+08
-.11307E+08
-.10902E+08
-.11444E+08
-.10714E+08
-.10654E+08
-.11478E+08
-.11107E+08
-.11169E+08
-.11063E+08
-.11186E+08
-.11310E+08
-.11040E+08
-.10785E+08
-.11532E+08
-.11072E+08
-.11183E+08
-.11021E+08
-.11267E+08
-.11475E+08
-.10736E+08
-.11104E+08
-.11183E+08
-.11152E+08
-.11144E+08
-.11242E+08
-.11058E+08
-.11137E+08
-.11153E+08
-.11131E+08
-.11160E+08
</weights>
</event>
<event>
      7  10001  1.11453E+07  1.58439E+00 -1.00000E+00  4.03459E-01
      21    -1     0     0   502   501  0.000000000E+00  0.000000000E+00  1.782357672E+01  1.782357672E+01  0.000000000E+00  0.00000E+00  9.000E+00
      -2    -1     0     0     0   502  0.000000000E+00  0.000000000E+00 -4.100133705E-01  4.100133705E-01  0.000000000E+00  0.00000E+00  9.000E+00
      23     2     1     2     0     0  4.779957757E-01 -2.837649713E-02  9.716508243E-01  1.778706685E+00  1.410817834E+00  0.00000E+00  9.000E+00
      11     1     3     3     0     0  1.623279449E-01  5.742981471E-01  5.219878665E-03  5.968217755E-01  5.110000000E-04  0.00000E+00  9.000E+00
     -11     1     3     3     0     0  3.156678308E-01 -6.026746443E-01  9.664309456E-01  1.181884910E+00  5.110000000E-04  0.00000E+00  9.000E+00
      -2     1     1     2     0   511  8.003057144E-02  3.528220539E-03  1.158259007E+00  1.161025955E+00  0.000000000E+00  0.00000E+00  9.000E+00
      21     1     1     2   511   501 -5.580263472E-01  2.484827659E-02  1.528365351E+01  1.529385745E+01  0.000000000E+00  0.00000E+00  9.000E+00
#rwgt            1          14   2616118.1936468515                3     6018184           0
<weights>
0.11145E+08
0.12593E+08
0.96202E+07
0.12932E+08
0.92402E+07
0.10767E+08
0.11459E+08
0.10956E+08
0.11373E+08
0.10809E+08
0.10766E+08
0.10972E+08
0.10953E+08
0.10816E+08
0.10781E+08
0.11182E+08
0.11306E+08
0.11523E+08
0.11510E+08
0.11493E+08
0.11501E+08
0.11558E+08
0.11550E+08
0.11476E+08
0.11291E+08
0.11363E+08
0.11194E+08
0.11515E+08
0.11347E+08
0.11548E+08
0.11553E+08
0.11164E+08
0.11253E+08
0.11141E+08
0.11184E+08
0.11014E+08
0.11315E+08
0.11199E+08
0.11020E+08
0.11177E+08
0.11115E+08
0.11221E+08
0.11065E+08
0.11543E+08
0.10782E+08
</weights>
</event>
<event>
      6  10001 -1.11453E+07  8.94427E-01 -1.00000E+00  6.01612E-01
      -5    -1     0     0     0   502  0.000000000E+00  0.000000000E+00  1.843508290E-01  1.843508290E-01  0.000000000E+00  0.00000E+00  9.000E+00
      21    -1     0     0   502   501  0.000000000E+00  0.000000000E+00 -5.229809590E+00  5.229809590E+00  0.000000000E+00  0.00000E+00  9.000E+00
      23     2     1     2     0     0  1.455624793E-01  2.384967414E-01 -1.622044257E+00  1.979362609E+00  1.099445148E+00  0.00000E+00  9.000E+00
      11     1     3     3     0     0 -3.041881234E-01  4.643484553E-01 -1.201396431E+00  1.323443821E+00  5.110000000E-04  0.00000E+00  9.000E+00
     -11     1     3     3     0     0  4.497506027E-01 -2.258517140E-01 -4.206478265E-01  6.559187880E-01  5.110000000E-04  0.00000E+00  9.000E+00
      -5     1     1     2     0   501 -1.455624793E-01 -2.384967414E-01 -3.423414504E+00  3.434797810E+00  0.000000000E+00  0.00000E+00  9.000E+00
#rwgt            1           1  -33976.219902313489                3     6052017           0
<weights>
-.11145E+08
-.10431E+07
-.19159E+08
-.17729E+08
-.71251E+07
0.78092E+06
-.29186E+08
-.11080E+08
-.11223E+08
-.12048E+08
-.12228E+08
-.11497E+08
-.11752E+08
-.12134E+08
-.12221E+08
-.11001E+08
-.10614E+08
-.10034E+08
-.99352E+07
-.99229E+07
-.10132E+08
-.98834E+07
-.98709E+07
-.10346E+08
-.10539E+08
-.10497E+08
-.11119E+08
-.99718E+07
-.10361E+08
-.98533E+07
-.98638E+07
-.10886E+08
-.11023E+08
-.11191E+08
-.11003E+08
-.11071E+08
-.11179E+08
-.10496E+08
-.12104E+08
-.10801E+08
-.11446E+08
-.11013E+08
-.11283E+08
-.99783E+07
-.12180E+08
</weights>
</event>
<event>
      7  10001  1.11453E+07  1.34704E+00 -1.00000E+00  4.59642E-01
      -4    -1     0     0     0   502  0.000000000E+00  0.000000000E+00  2.465678787E+00  2.465678787E+00  0.000000000E+00  0.00000E+00  9.000E+00
      21    -1     0     0   502   501  0.000000000E+00  0.000000000E+00 -9.664814539E-01  9.664814539E-01  0.000000000E+00  0.00000E+00  9.000E+00
      23     2     1     2     0     0  7.573767013E-02  3.999262687E-01  1.932703667E+00  2.565283052E+00  1.636965625E+00  0.00000E+00  9.000E+00
      11     1     3     3     0     0  7.230418582E-01 -3.429219524E-02  3.564944644E-01  8.068792026E-01  5.110000000E-04  0.00000E+00  9.000E+00
     -11     1     3     3     0     0 -6.473041881E-01  4.342184640E-01  1.576209203E+00  1.758403850E+00  5.110000000E-04  0.00000E+00  9.000E+00
      -4     1     1     2     0   511  1.624554417E-01 -1.346457840E-01  9.334891882E-02  2.307277147E-01  0.000000000E+00  0.00000E+00  9.000E+00
      21     1     1     2   511   501 -2.381931118E-01 -2.652804847E-01 -5.268552536E-01  6.361494732E-01  3.650024150E-08  0.00000E+00  9.000E+00
#rwgt            2          41   3156786.2876832341                3     6056103           0
<weights>
0.11145E+08
0.11951E+08
0.99925E+07
0.14525E+08
0.80065E+07
0.91702E+07
0.13910E+08
0.11196E+08
0.11091E+08
0.10850E+08
0.10854E+08
0.10969E+08
0.11032E+08
0.10873E+08
0.10863E+08
0.11225E+08
0.11187E+08
0.11428E+08
0.11442E+08
0.11437E+08
0.11406E+08
0.11454E+08
0.11478E+08
0.11325E+08
0.11338E+08
0.11289E+08
0.11171E+08
0.11397E+08
0.11331E+08
0.11427E+08
0.11466E+08
0.11172E+08
0.11214E+08
0.11139E+08
0.11171E+08
0.11230E+08
0.11076E+08
0.11083E+08
0.11134E+08
0.11154E+08
0.11139E+08
0.11176E+08
0.11113E+08
0.11465E+08
0.10849E+08
</weights>
</event>
<event>
      6  10001 -1.11453E+07  8.94427E-01 -1.00000E+00  4.33089E-01
      -4    -1     0     0     0   502  0.000000000E+00  0.000000000E+00  6.993720180E+00  6.993720180E+00  0.000000000E+00  0.00000E+00  9.000E+00
       4    -1     0     0   501     0  0.000000000E+00  0.000000000E+00 -3.057454784E-01  3.057454784E-01  0.000000000E+00  0.00000E+00  9.000E+00
      23     2     1     2     0     0  1.515339378E-01 -2.012928899E-01  3.685911183E+00  4.286847738E+00  2.174313897E+00  0.00000E+00  9.000E+00
      11     1     3     3     0     0  1.383631500E-01  5.049855519E-01  3.523271369E+00  3.561965211E+00  5.110000000E-04  0.00000E+00  9.000E+00
     -11     1     3     3     0     0  1.317078787E-02 -7.062784419E-01  1.626398139E-01  7.248825265E-01  5.110000000E-04  0.00000E+00  9.000E+00
      21     1     1     2   501   502 -1.515339378E-01  2.012928899E-01  3.002063519E+00  3.012617921E+00  4.214684851E-08  0.00000E+00  9.000E+00
#rwgt            1           4  -147108.32068487167                3     6057893           0
<weights>
-.11145E+08
-.10210E+08
-.11242E+08
-.18526E+08
-.57437E+07
-.53952E+07
-.19705E+08
-.11206E+08
-.11082E+08
-.10930E+08
-.10971E+08
-.11006E+08
-.11091E+08
-.10967E+08
-.10975E+08
-.11208E+08
-.11130E+08
-.11308E+08
-.11322E+08
-.11317E+08
-.11296E+08
-.11315E+08
-.11356E+08
-.11210E+08
-.11303E+08
-.11234E+08
-.11123E+08
-.11269E+08
-.11239E+08
-.11277E+08
-.11328E+08
-.11133E+08
-.11211E+08
-.11151E+08
-.11146E+08
-.11238E+08
-.11064E+08
-.10947E+08
-.11275E+08
-.11117E+08
-.11170E+08
-.11161E+08
-.11129E+08
-.11346E+08
-.10954E+08
</weights>
</event>
<event>
      6  10001 -1.11453E+07  8.94427E-01 -1.00000E+00  6.07611E-01
      -4    -1     0     0     0   502  0.000000000E+00  0.000000000E+00  4.179537839E-01  4.179537839E-01  0.000000000E+00  0.00000E+00  9.000E+00
       4    -1     0     0   501     0  0.000000000E+00  0.000000000E+00 -1.901764562E+00  1.901764562E+00  0.000000000E+00  0.00000E+00  9.000E+00
      23     2     1     2     0     0  2.204167390E-01 -3.133134821E-01 -1.592414820E+00  1.921542863E+00  1.004884639E+00  0.00000E+00  9.000E+00
      11     1     3     3     0     0  9.356419298E-02 -1.303913317E-01  1.164216355E-01  1.982685450E-01  5.110000000E-04  0.00000E+00  9.000E+00
     -11     1     3     3     0     0  1.268525460E-01 -1.829221504E-01 -1.708836456E+00  1.723274318E+00  5.110000000E-04  0.00000E+00  9.000E+00
      21     1     1     2   501   502 -2.204167390E-01  3.133134821E-01  1.086040424E-01  3.981754826E-01  6.316537022E-09  0.00000E+00  9.000E+00
#rwgt            1           4  -596296.29208172427                3     6060542           0
<weights>
-.11145E+08
-.11605E+08
-.10066E+08
-.18507E+08
-.58281E+07
-.65140E+07
-.17987E+08
-.11205E+08
-.11084E+08
-.10945E+08
-.10990E+08
-.11013E+08
-.11100E+08
-.10984E+08
-.10993E+08
-.11205E+08
-.11122E+08
-.11289E+08
-.11303E+08
-.11298E+08
-.11278E+08
-.11293E+08
-.11335E+08
-.11199E+08
-.11292E+08
-.11221E+08
-.11130E+08
-.11249E+08
-.11227E+08
-.11255E+08
-.11306E+08
-.11128E+08
-.11210E+08
-.11153E+08
-.11143E+08
-.11235E+08
-.11066E+08
-.10940E+08
-.11294E+08
-.11112E+08
-.11174E+08
-.11159E+08
-.11131E+08
-.11326E+08
-.10971E+08
</weights>
</event>
<event>
      6  10001  1.11453E+07  8.94427E-01 -1.00000E+00  6.02678E-01
       2    -1     0     0   501     0  0.000000000E+00  0.000000000E+00  5.902627023E-02  5.902627023E-02  0.000000000E+00  0.00000E+00  9.000E+00
      21    -1     0     0   502   501  0.000000000E+00  0.000000000E+00 -3.816505323E+01  3.816505323E+01  0.000000000E+00  0.00000E+00  9.000E+00
      23     2     1     2     0     0 -6.061704455E-01 -7.753980689E-01 -1.201582721E+01  1.211532220E+01  1.196763844E+00  0.00000E+00  9.000E+00
      11     1     3     3     0     0 -5.225925905E-01 -1.083769133E+00 -8.453381312E+00  8.538578009E+00  5.110000000E-04  0.00000E+00  9.000E+00
     -11     1     3     3     0     0 -8.357785497E-02  3.083710641E-01 -3.562445901E+00  3.576744194E+00  5.110000000E-04  0.00000E+00  9.000E+00
       2     1     1     2   502     0  6.061704455E-01  7.753980689E-01 -2.609019975E+01  2.610875730E+01  0.000000000E+00  0.00000E+00  9.000E+00
#rwgt            1          24   1272707.0840189827                3     6061357           0
<weights>
0.11145E+08
0.12187E+08
0.10034E+08
0.12227E+08
0.97836E+07
0.10942E+08
0.11189E+08
0.11294E+08
0.10997E+08
0.10691E+08
0.10804E+08
0.10888E+08
0.11010E+08
0.10763E+08
0.10795E+08
0.11235E+08
0.11185E+08
0.11476E+08
0.11539E+08
0.11533E+08
0.11452E+08
0.11490E+08
0.11600E+08
0.11230E+08
0.11543E+08
0.11446E+08
0.10999E+08
0.11440E+08
0.11298E+08
0.11411E+08
0.11516E+08
0.11104E+08
0.11299E+08
0.11173E+08
0.11129E+08
0.11368E+08
0.10950E+08
0.10721E+08
0.11471E+08
0.11127E+08
0.11162E+08
0.11166E+08
0.11124E+08
0.11560E+08
0.10752E+08
</weights>
</event>
<event>
      6  10001 -1.11453E+07  8.94427E-01 -1.00000E+00  5.29230E-01
      21    -1     0     0   502   501  0.000000000E+00  0.000000000E+00  9.646159953E-03  9.646159953E-03  0.000000000E+00  0.00000E+00  9.000E+00
       2    -1     0     0   501     0  0.000000000E+00  0.000000000E+00 -6.411269949E+02  6.411269949E+02  0.000000000E+00  0.00000E+00  9.000E+00
      23     2     1     2     0     0 -8.003333353E-01 -1.034926204E-01 -5.595361991E+02  5.595515002E+02  4.058564883E+00  0.00000E+00  9.000E+00
      11     1     3     3     0     0  2.550469051E-01  1.139120297E+00 -4.634573246E+02  4.634587946E+02  5.110000000E-04  0.00000E+00  9.000E+00
     -11     1     3     3     0     0 -1.055380240E+00 -1.242612918E+00 -9.607887458E+01  9.609270552E+01  5.110000000E-04  0.00000E+00  9.000E+00
       2     1     1     2   502     0  8.003333353E-01  1.034926204E-01 -8.158114962E+01  8.158514092E+01  0.000000000E+00  0.00000E+00  9.000E+00
#rwgt            1          17  -46390157.993888967                3     6155045           0
<weights>
-.11145E+08
-.11907E+08
-.10139E+08
-.14471E+08
-.81237E+07
-.91702E+07
-.13910E+08
-.11133E+08
-.11157E+08
-.11163E+08
-.11144E+08
-.10944E+08
-.11371E+08
-.11154E+08
-.11148E+08
-.11138E+08
-.11145E+08
-.11547E+08
-.10594E+08
-.10511E+08
-.11598E+08
-.11114E+08
-.11172E+08
-.10977E+08
-.11282E+08
-.11475E+08
-.10945E+08
-.10631E+08
-.11736E+08
-.11054E+08
-.11204E+08
-.11069E+08
-.11219E+08
-.11653E+08
-.10537E+08
-.11072E+08
-.11213E+08
-.11131E+08
-.11169E+08
-.11294E+08
-.11013E+08
-.11124E+08
-.11167E+08
-.11137E+08
-.11154E+08
</weights>
</event>
<event>
      7  10001  1.11453E+07  8.94427E-01 -1.00000E+00  6.07649E-01
       2    -1     0     0   502     0  0.000000000E+00  0.000000000E+00  1.708468793E+02  1.708468793E+02  0.000000000E+00  0.00000E+00  9.000E+00
       4    -1     0     0   501     0  0.000000000E+00  0.000000000E+00 -3.098431956E-01  3.098431956E-01  0.000000000E+00  0.00000E+00  9.000E+00
      23     2     1     2     0     0 -7.895480785E-01 -5.364702733E-01  5.389994133E+01  5.392000867E+01  1.119139353E+00  0.00000E+00  9.000E+00
      11     1     3     3     0     0  2.506369114E-01 -9.835144909E-02  1.879255222E+01  1.879448086E+01  5.110000000E-04  0.00000E+00  9.000E+00
     -11     1     3     3     0     0 -1.040184990E+00 -4.381188242E-01  3.510738912E+01  3.512552781E+01  5.110000000E-04  0.00000E+00  9.000E+00
       4     1     1     2   502     0  6.195106584E-01  5.540519907E-01  2.763788350E-01  8.758723222E-01  0.000000000E+00  0.00000E+00  9.000E+00
       2     1     1     2   501     0  1.700374201E-01 -1.758171741E-02  1.163607159E+02  1.163608415E+02  0.000000000E+00  0.00000E+00  9.000E+00
#rwgt            2         257   391714.33913773863                3     6155891           0
<weights>
0.11145E+08
0.10899E+08
0.11252E+08
0.13246E+08
0.90161E+07
0.91702E+07
0.13910E+08
0.11189E+08
0.11098E+08
0.10808E+08
0.10793E+08
0.10951E+08
0.11002E+08
0.10824E+08
0.10804E+08
0.11233E+08
0.11217E+08
0.11489E+08
0.11507E+08
0.11501E+08
0.11462E+08
0.11526E+08
0.11542E+08
0.11388E+08
0.11356E+08
0.11317E+08
0.11211E+08
0.11463E+08
0.11378E+08
0.11504E+08
0.11537E+08
0.11191E+08
0.11216E+08
0.11133E+08
0.11184E+08
0.11226E+08
0.11083E+08
0.11150E+08
0.11064E+08
0.11172E+08
0.11123E+08
0.11184E+08
0.11105E+08
0.11527E+08
0.10795E+08
</weights>
</event>
<event>
      7  10001  1.11453E+07  6.80711E+00 -1.00000E+00  2.16387E-01
       2    -1     0     0   501     0  0.000000000E+00  0.000000000E+00  2.692914253E+02  2.692914253E+02  0.000000000E+00  0.00000E+00  9.000E+00
      21    -1     0     0   502   501  0.000000000E+00  0.000000000E+00 -7.282301592E-02  7.282301592E-02  0.000000000E+00  0.00000E+00  9.000E+00
      23     2     1     2     0     0  8.066198930E-01 -6.805039560E-01  1.680894577E+01  1.690942222E+01  1.508038577E+00  0.00000E+00  9.000E+00
      11     1     3     3     0     0 -2.326046717E-01  3.120794848E-01  4.522226621E+00  4.538946178E+00  5.110000000E-04  0.00000E+00  9.000E+00
     -11     1     3     3     0     0  1.039224565E+00 -9.925834407E-01  1.228671915E+01  1.237047604E+01  5.110000000E-04  0.00000E+00  9.000E+00
       2     1     1     2   511     0 -1.513608905E+00  1.761739910E-01  2.666900193E+01  2.671250106E+01  0.000000000E+00  0.00000E+00  9.000E+00
      21     1     1     2   502   511  7.069890118E-01  5.043299650E-01  2.257406546E+02  2.257423250E+02  2.697398305E-06  0.00000E+00  9.000E+00
#rwgt            1          24   2133789.7535601524                3     6156826           0
<weights>
0.11145E+08
0.85779E+07
0.15253E+08
0.84790E+07
0.13549E+08
0.10515E+08
0.11846E+08
0.11175E+08
0.11118E+08
0.10838E+08
0.10839E+08
0.10968E+08
0.11019E+08
0.10861E+08
0.10848E+08
0.11223E+08
0.11193E+08
0.11436E+08
0.11476E+08
0.11464E+08
0.11415E+08
0.11471E+08
0.11492E+08
0.11390E+08
0.11320E+08
0.11270E+08
0.11356E+08
0.11404E+08
0.11353E+08
0.11446E+08
0.11484E+08
0.11173E+08
0.11219E+08
0.11141E+08
0.11172E+08
0.11211E+08
0.11098E+08
0.11102E+08
0.11130E+08
0.11157E+08
0.11136E+08
0.11183E+08
0.11106E+08
0.11480E+08
0.10836E+08
</weights>
</event>
<event>
      6  10001 -1.11453E+07  8.94427E-01 -1.00000E+00  1.32525E-01
       4    -1     0     0   501     0  0.000000000E+00  0.000000000E+00  2.436902443E+01  2.436902443E+01  0.000000000E+00  0.00000E+00  9.000E+00
      21    -1     0     0   502   501  0.000000000E+00  0.000000000E+00 -2.119881528E-02  2.119881528E-02  0.000000000E+00  0.00000E+00  9.000E+00
      23     2     1     2     0     0  2.305830330E-01 -1.946635811E-01  2.039399764E+01  2.042489626E+01  1.081750921E+00  0.00000E+00  9.000E+00
      11     1     3     3     0     0 -4.132420730E-01 -1.309372357E-01  5.597176562E+00  5.613937950E+00  5.110000000E-04  0.00000E+00  9.000E+00
     -11     1     3     3     0     0  6.438251060E-01 -6.372634540E-02  1.479682107E+01  1.481095831E+01  5.110000000E-04  0.00000E+00  9.000E+00
       4     1     1     2   502     0 -2.305830330E-01  1.946635811E-01  3.953827983E+00  3.965326993E+00  0.000000000E+00  0.00000E+00  9.000E+00
#rwgt            1          28  -4003672.8283620710                3     6185500           0
<weights>
-.11145E+08
-.13232E+08
-.89309E+07
-.16091E+08
-.71562E+07
-.91650E+07
-.13909E+08
-.11171E+08
-.11121E+08
-.10822E+08
-.10811E+08
-.10961E+08
-.11005E+08
-.10839E+08
-.10821E+08
-.11226E+08
-.11212E+08
-.11465E+08
-.11507E+08
-.11495E+08
-.11441E+08
-.11505E+08
-.11523E+08
-.11416E+08
-.11329E+08
-.11287E+08
-.11359E+08
-.11438E+08
-.11374E+08
-.11483E+08
-.11517E+08
-.11184E+08
-.11217E+08
-.11137E+08
-.11178E+08
-.11208E+08
-.11102E+08
-.11136E+08
-.11080E+08
-.11167E+08
-.11127E+08
-.11186E+08
-.11103E+08
-.11508E+08
-.10811E+08
</weights>
</event>
<event>
      6  10001 -1.11453E+07  8.94427E-01 -1.00000E+00  5.70804E-01
       5    -1     0     0   501     0  0.000000000E+00  0.000000000E+00  2.218188367E-02  2.218188367E-02  0.000000000E+00  0.00000E+00  9.000E+00
      21    -1     0     0   502   501  0.000000000E+00  0.000000000E+00 -1.787723173E+02  1.787723173E+02  0.000000000E+00  0.00000E+00  9.000E+00
      23     2     1     2     0     0 -4.404621627E-01 -3.041814914E-01 -1.684583243E+02  1.684887770E+02  3.158230807E+00  0.00000E+00  9.000E+00
      11     1     3     3     0     0 -4.184788557E-01  7.802323626E-01 -1.470646962E+01  1.473309662E+01  5.110000000E-04  0.00000E+00  9.000E+00
     -11     1     3     3     0     0 -2.198330698E-02 -1.084413854E+00 -1.537518547E+02  1.537556804E+02  5.110000000E-04  0.00000E+00  9.000E+00
       5     1     1     2   502     0  4.404621627E-01  3.041814914E-01 -1.029181108E+01  1.030572213E+01  0.000000000E+00  0.00000E+00  9.000E+00
#rwgt            1          30  -72878.374654931162                3     6187675           0
<weights>
-.11145E+08
-.12208E+08
-.97711E+07
-.14837E+08
-.78291E+07
-.91702E+07
-.13910E+08
-.11072E+08
-.11216E+08
-.11399E+08
-.11328E+08
-.11151E+08
-.11384E+08
-.11391E+08
-.11367E+08
-.11100E+08
-.11069E+08
-.10934E+08
-.10859E+08
-.10858E+08
-.10955E+08
-.10915E+08
-.10833E+08
-.11101E+08
-.10868E+08
-.10973E+08
-.11201E+08
-.10971E+08
-.10983E+08
-.10939E+08
-.10897E+08
-.11149E+08
-.11065E+08
-.11115E+08
-.11167E+08
-.11108E+08
-.11171E+08
-.11220E+08
-.11115E+08
-.11030E+08
-.11254E+08
-.11072E+08
-.11224E+08
-.10896E+08
-.11369E+08
</weights>
</event>
<event>
      6  10001  1.11453E+07  8.94427E-01 -1.00000E+00  5.93610E-01
       4    -1     0     0   501     0  0.000000000E+00  0.000000000E+00  5.606350762E-01  5.606350762E-01  0.000000000E+00  0.00000E+00  9.000E+00
      21    -1     0     0   502   501  0.000000000E+00  0.000000000E+00 -2.250643190E+01  2.250643190E+01  0.000000000E+00  0.00000E+00  9.000E+00
      23     2     1     2     0     0  9.007303648E-01 -1.003038739E+00 -2.203723814E+00  3.279018851E+00  2.019446477E+00  0.00000E+00  9.000E+00
      11     1     3     3     0     0  8.452695372E-01 -7.860902192E-01 -9.474587257E-02  1.158186282E+00  5.110000000E-04  0.00000E+00  9.000E+00
     -11     1     3     3     0     0  5.546082769E-02 -2.169485199E-01 -2.108977942E+00  2.120832569E+00  5.110000000E-04  0.00000E+00  9.000E+00
       4     1     1     2   502     0 -9.007303648E-01  1.003038739E+00 -1.974207301E+01  1.978804813E+01  0.000000000E+00  0.00000E+00  9.000E+00
#rwgt            1          28   1640793.4578336664                3     6188297           0
<weights>
0.11145E+08
0.12590E+08
0.95298E+07
0.12747E+08
0.93161E+07
0.10909E+08
0.11241E+08
0.11259E+08
0.11029E+08
0.10729E+08
0.10787E+08
0.10909E+08
0.11001E+08
0.10771E+08
0.10786E+08
0.11235E+08
0.11209E+08
0.11497E+08
0.11545E+08
0.11542E+08
0.11470E+08
0.11517E+08
0.11605E+08
0.11276E+08
0.11500E+08
0.11428E+08
0.11018E+08
0.11467E+08
0.11331E+08
0.11462E+08
0.11540E+08
0.11142E+08
0.11266E+08
0.11153E+08
0.11156E+08
0.11321E+08
0.10992E+08
0.10888E+08
0.11265E+08
0.11152E+08
0.11140E+08
0.11173E+08
0.11116E+08
0.11561E+08
0.10758E+08
</weights>
</event>
<event>
      7  10001  1.11453E+07  1.47845E+00 -1.00000E+00  4.31637E-01
       2    -1     0     0   501     0  0.000000000E+00  0.000000000E+00  1.537279088E-01  1.537279088E-01  0.000000000E+00  0.00000E+00  9.000E+00
      21    -1     0     0   502   501  0.000000000E+00  0.000000000E+00 -1.268729741E+01  1.268729741E+01  0.000000000E+00  0.00000E+00  9.000E+00
      23     2     1     2     0     0 -1.793620223E-01 -1.893127477E-01 -3.470811166E+00  3.712283749E+00  1.290933937E+00  0.00000E+00  9.000E+00
      11     1     3     3     0     0  4.209205475E-01 -3.193013005E-01 -2.558563531E+00  2.612541871E+00  5.110000000E-04  0.00000E+00  9.000E+00
     -11     1     3     3     0     0 -6.002825698E-01  1.299885528E-01 -9.122476353E-01  1.099741877E+00  5.110000000E-04  0.00000E+00  9.000E+00
       2     1     1     2   511     0  2.939169298E-01  3.016781219E-01 -1.346971115E+00  1.411285951E+00  0.000000000E+00  0.00000E+00  9.000E+00
      21     1     1     2   502   511 -1.145549075E-01 -1.123653743E-01 -7.715787218E+00  7.717455616E+00  0.000000000E+00  0.00000E+00  9.000E+00
#rwgt            1          24   1096094.5821117675                3     6292836           0
<weights>
0.11145E+08
0.14105E+08
0.81617E+07
0.11945E+08
0.98209E+07
0.12630E+08
0.85992E+07
0.11297E+08
0.10986E+08
0.10404E+08
0.10416E+08
0.10762E+08
0.10809E+08
0.10426E+08
0.10419E+08
0.11302E+08
0.11358E+08
0.11874E+08
0.11956E+08
0.11956E+08
0.11813E+08
0.11937E+08
0.12051E+08
0.11516E+08
0.11737E+08
0.11652E+08
0.10986E+08
0.11846E+08
0.11590E+08
0.11881E+08
0.11972E+08
0.11216E+08
0.11319E+08
0.11132E+08
0.11207E+08
0.11373E+08
0.10953E+08
0.11019E+08
0.10988E+08
0.11244E+08
0.11059E+08
0.11219E+08
0.11069E+08
0.11963E+08
0.10399E+08
</weights>
</event>
<event>
      7  10001  1.11453E+07  1.55164E+00 -1.00000E+00  4.08606E-01
       2    -1     0     0   501     0  0.000000000E+00  0.000000000E+00  1.211579594E-01  1.211579594E-01  0.000000000E+00  0.00000E+00  9.000E+00
      21    -1     0     0   512   501  0.000000000E+00  0.000000000E+00 -1.387583795E+02  1.387583795E+02  0.000000000E+00  0.00000E+00  9.000E+00
      23     2     1     2     0     0 -7.458474461E-01 -2.610505210E-02 -1.028522671E+01  1.040120153E+01  1.357252680E+00  0.00000E+00  9.000E+00
      11     1     3     3     0     0 -8.787519899E-01 -3.167003388E-01 -9.597672121E+00  9.643018955E+00  5.110000000E-04  0.00000E+00  9.000E+00
     -11     1     3     3     0     0  1.329045438E-01  2.905952867E-01 -6.875545912E-01  7.581825739E-01  5.110000000E-04  0.00000E+00  9.000E+00
       2     1     1     2   502     0  2.194307426E+00 -5.302642110E-01 -2.209734519E+01  2.221235758E+01  0.000000000E+00  0.00000E+00  9.000E+00
      21     1     1     2   512   502 -1.448459980E+00  5.563692631E-01 -1.062546497E+02  1.062659784E+02  1.348699152E-06  0.00000E+00  9.000E+00
#rwgt            1          24   792713.08043330815                3     6386993           0
<weights>
0.11145E+08
0.12176E+08
0.10045E+08
0.12274E+08
0.97476E+07
0.10900E+08
0.11254E+08
0.11271E+08
0.11019E+08
0.10736E+08
0.10819E+08
0.10907E+08
0.11022E+08
0.10792E+08
0.10815E+08
0.11231E+08
0.11191E+08
0.11461E+08
0.11515E+08
0.11510E+08
0.11438E+08
0.11476E+08
0.11572E+08
0.11241E+08
0.11502E+08
0.11423E+08
0.11014E+08
0.11430E+08
0.11298E+08
0.11411E+08
0.11500E+08
0.11122E+08
0.11274E+08
0.11162E+08
0.11142E+08
0.11339E+08
0.10975E+08
0.10806E+08
0.11373E+08
0.11132E+08
0.11158E+08
0.11166E+08
0.11124E+08
0.11533E+08
0.10780E+08
</weights>
</event>
<event>
      7  10001  1.11453E+07  8.94427E-01 -1.00000E+00  6.07649E-01
       2    -1     0     0   502     0  0.000000000E+00  0.000000000E+00  7.271458024E-01  7.271458024E-01  0.000000000E+00  0.00000E+00  9.000E+00
       2    -1     0     0   501     0  0.000000000E+00  0.000000000E+00 -2.881030878E+00  2.881030878E+00  0.000000000E+00  0.00000E+00  9.000E+00
      23     2     1     2     0     0  4.196793633E-02  3.065223213E-01 -9.302963760E-02  1.157467984E+00  1.111467669E+00  0.00000E+00  9.000E+00
      11     1     3     3     0     0  2.154409352E-01  6.684794096E-01  1.045769246E-01  7.100817642E-01  5.110000000E-04  0.00000E+00  9.000E+00
     -11     1     3     3     0     0 -1.734729988E-01 -3.619570882E-01 -1.976065622E-01  4.473862197E-01  5.110000000E-04  0.00000E+00  9.000E+00
       2     1     1     2   502     0 -4.576459648E-01 -3.296682944E-01 -1.935377146E+00  2.015888318E+00  0.000000000E+00  0.00000E+00  9.000E+00
       2     1     1     2   501     0  4.156780284E-01  2.314597310E-02 -1.254782914E-01  4.348203779E-01  0.000000000E+00  0.00000E+00  9.000E+00
#rwgt            2         253   163958.73575259058                3     6439324           0
<weights>
0.11145E+08
0.11741E+08
0.10356E+08
0.14270E+08
0.82979E+07
0.91702E+07
0.13910E+08
0.11118E+08
0.11171E+08
0.10866E+08
0.10859E+08
0.11001E+08
0.10998E+08
0.10883E+08
0.10869E+08
0.11160E+08
0.11280E+08
0.11407E+08
0.11454E+08
0.11448E+08
0.11388E+08
0.11451E+08
0.11461E+08
0.11329E+08
0.11322E+08
0.11336E+08
0.11082E+08
0.11452E+08
0.11238E+08
0.11434E+08
0.11446E+08
0.11158E+08
0.11226E+08
0.11127E+08
0.11193E+08
0.11097E+08
0.11215E+08
0.11091E+08
0.11119E+08
0.11146E+08
0.11143E+08
0.11204E+08
0.11083E+08
0.11453E+08
0.10861E+08
</weights>
</event>
<event>
      6  10001 -1.11453E+07  8.94427E-01 -1.00000E+00  4.36142E-01
      -4    -1     0     0     0   502  0.000000000E+00  0.000000000E+00  9.696324290E+00  9.696324290E+00  0.000000000E+00  0.00000E+00  9.000E+00
       4    -1     0     0   501     0  0.000000000E+00  0.000000000E+00 -1.088749712E-01  1.088749712E-01  0.000000000E+00  0.00000E+00  9.000E+00
      23     2     1     2     0     0 -3.196205637E-01 -1.134089061E-01  7.458510780E+00  7.649416761E+00  1.664083787E+00  0.00000E+00  9.000E+00
      11     1     3     3     0     0  5.440878466E-01  3.176392589E-01  4.323419105E+00  4.369082203E+00  5.110000000E-04  0.00000E+00  9.000E+00
     -11     1     3     3     0     0 -8.637084104E-01 -4.310481649E-01  3.135091675E+00  3.280334558E+00  5.110000000E-04  0.00000E+00  9.000E+00
      21     1     1     2   501   502  3.196205637E-01  1.134089061E-01  2.128938539E+00  2.155782500E+00  0.000000000E+00  0.00000E+00  9.000E+00
#rwgt            1           4  -312387.72733881552                3     6439518           0
<weights>
-.11145E+08
-.90323E+07
-.11962E+08
-.21371E+08
-.41769E+07
-.28310E+07
-.23641E+08
-.11225E+08
-.11062E+08
-.10961E+08
-.11021E+08
-.11017E+08
-.11119E+08
-.11006E+08
-.11022E+08
-.11204E+08
-.11103E+08
-.11262E+08
-.11260E+08
-.11259E+08
-.11253E+08
-.11256E+08
-.11306E+08
-.11131E+08
-.11305E+08
-.11226E+08
-.11009E+08
-.11218E+08
-.11194E+08
-.11212E+08
-.11269E+08
-.11116E+08
-.11210E+08
-.11156E+08
-.11136E+08
-.11255E+08
-.11044E+08
-.10878E+08
-.11343E+08
-.11101E+08
-.11185E+08
-.11152E+08
-.11138E+08
-.11297E+08
-.10997E+08
</weights>
</event>
<event>
      6  10001 -1.11453E+07  8.94427E-01 -1.00000E+00  3.06318E-01
      21    -1     0     0   502   501  0.000000000E+00  0.000000000E+00  2.326027872E-02  2.326027872E-02  0.000000000E+00  0.00000E+00  9.000E+00
       4    -1     0     0   501     0  0.000000000E+00  0.000000000E+00 -1.467850177E+02  1.467850177E+02  0.000000000E+00  0.00000E+00  9.000E+00
      23     2     1     2     0     0 -5.041102862E-02 -2.450465195E-01 -1.460416611E+02  1.460459606E+02  1.092356830E+00  0.00000E+00  9.000E+00
      11     1     3     3     0     0 -2.456922560E-01  1.856950537E-01 -1.173331335E+02  1.173335377E+02  5.110000000E-04  0.00000E+00  9.000E+00
     -11     1     3     3     0     0  1.952812273E-01 -4.307415732E-01 -2.870852761E+01  2.871242293E+01  5.110000000E-04  0.00000E+00  9.000E+00
       4     1     1     2   502     0  5.041102862E-02  2.450465195E-01 -7.200963669E-01  7.623174182E-01  0.000000000E+00  0.00000E+00  9.000E+00
#rwgt            1          19  -747803.59861208359                3     6442603           0
<weights>
-.11145E+08
-.12696E+08
-.94056E+07
-.15430E+08
-.75363E+07
-.91702E+07
-.13910E+08
-.11066E+08
-.11221E+08
-.11425E+08
-.11342E+08
-.11101E+08
-.11466E+08
-.11430E+08
-.11400E+08
-.11108E+08
-.11028E+08
-.10903E+08
-.10799E+08
-.10799E+08
-.10925E+08
-.10878E+08
-.10773E+08
-.11105E+08
-.10805E+08
-.10909E+08
-.11231E+08
-.10937E+08
-.10954E+08
-.10897E+08
-.10856E+08
-.11154E+08
-.11048E+08
-.11112E+08
-.11169E+08
-.11122E+08
-.11158E+08
-.11169E+08
-.11178E+08
-.10963E+08
-.11317E+08
-.11045E+08
-.11252E+08
-.10863E+08
-.11393E+08
</weights>
</event>
<event>
      6  10001 -1.11453E+07  8.94427E-01 -1.00000E+00  5.98385E-01
      21    -1     0     0   502   501  0.000000000E+00  0.000000000E+00  2.415713276E-02  2.415713276E-02  0.000000000E+00  0.00000E+00  9.000E+00
       2    -1     0     0   501     0  0.000000000E+00  0.000000000E+00 -3.658142076E+01  3.658142076E+01  0.000000000E+00  0.00000E+00  9.000E+00
      23     2     1     2     0     0 -4.165893719E-01 -2.863801498E-02 -1.635300083E+01  1.639700046E+01  1.125442564E+00  0.00000E+00  9.000E+00
      11     1     3     3     0     0 -1.776563320E-01  4.537252550E-02 -3.788318708E-01  4.208732420E-01  5.110000000E-04  0.00000E+00  9.000E+00
     -11     1     3     3     0     0 -2.389330399E-01 -7.401054048E-02 -1.597416896E+01  1.597612722E+01  5.110000000E-04  0.00000E+00  9.000E+00
       2     1     1     2   502     0  4.165893719E-01  2.863801498E-02 -2.020426279E+01  2.020857743E+01  0.000000000E+00  0.00000E+00  9.000E+00
#rwgt            1          17  -8919871.0401866939                3     6443659           0
<weights>
-.11145E+08
-.12938E+08
-.92556E+07
-.15724E+08
-.74161E+07
-.91702E+07
-.13910E+08
-.11195E+08
-.11095E+08
-.11035E+08
-.11079E+08
-.11132E+08
-.11040E+08
-.11069E+08
-.11078E+08
-.11088E+08
-.11235E+08
-.11105E+08
-.11350E+08
-.11361E+08
-.11095E+08
-.11213E+08
-.11216E+08
-.11238E+08
-.11152E+08
-.11155E+08
-.11137E+08
-.11347E+08
-.10947E+08
-.11206E+08
-.11190E+08
-.11145E+08
-.11165E+08
-.11071E+08
-.11254E+08
-.11114E+08
-.11178E+08
-.11002E+08
-.11282E+08
-.11080E+08
-.11198E+08
-.11211E+08
-.11076E+08
-.11228E+08
-.11063E+08
</weights>
</event>
<event>
      7  10001  1.11453E+07  1.43636E+00 -1.00000E+00  4.40003E-01
      -1    -1     0     0     0   502  0.000000000E+00  0.000000000E+00  3.454203355E-02  3.454203355E-02  0.000000000E+00  0.00000E+00  9.000E+00
      21    -1     0     0   502   501  0.000000000E+00  0.000000000E+00 -1.029655176E+02  1.029655176E+02  0.000000000E+00  0.00000E+00  9.000E+00
      23     2     1     2     0     0 -2.237494885E-01  1.054862896E+00 -6.597439567E+01  6.599159356E+01  1.052015636E+00  0.00000E+00  9.000E+00
      11     1     3     3     0     0 -1.589216271E-01  3.813040214E-01 -6.381692766E+00  6.395048996E+00  5.110000000E-04  0.00000E+00  9.000E+00
     -11     1     3     3     0     0 -6.482786135E-02  6.735588744E-01 -5.959270290E+01  5.959654456E+01  5.110000000E-04  0.00000E+00  9.000E+00
      -1     1     1     2     0   511 -9.595386582E-02 -3.006115631E-01 -1.149759444E+00  1.192275654E+00  0.000000000E+00  0.00000E+00  9.000E+00
      21     1     1     2   511   501  3.197033543E-01 -7.542513327E-01 -3.580682048E+01  3.581619045E+01  6.743495762E-07  0.00000E+00  9.000E+00
#rwgt            1           9   76019.328708850386                3     6446156           0
<weights>
0.11145E+08
0.11687E+08
0.10490E+08
0.12432E+08
0.96810E+07
0.10422E+08
0.11988E+08
0.11225E+08
0.11066E+08
0.11014E+08
0.11122E+08
0.11010E+08
0.11208E+08
0.11125E+08
0.11127E+08
0.11183E+08
0.11033E+08
0.11146E+08
0.11097E+08
0.11091E+08
0.11150E+08
0.11141E+08
0.11106E+08
0.11100E+08
0.11189E+08
0.11160E+08
0.11103E+08
0.11131E+08
0.11071E+08
0.11079E+08
0.11135E+08
0.11071E+08
0.11221E+08
0.11155E+08
0.11130E+08
0.11288E+08
0.11013E+08
0.10748E+08
0.11620E+08
0.11032E+08
0.11249E+08
0.11119E+08
0.11173E+08
0.11189E+08
0.11080E+08
</weights>
</event>
<event>
      7  10001  1.11453E+07  8.94427E-01 -1.00000E+00  6.07649E-01
       4    -1     0     0   501     0  0.000000000E+00  0.000000000E+00  3.195263487E+00  3.195263487E+00  0.000000000E+00  0.00000E+00  9.000E+00
      21    -1     0     0   512   502  0.000000000E+00  0.000000000E+00 -1.345624708E+00  1.345624708E+00  0.000000000E+00  0.00000E+00  9.000E+00
      23     2     1     2     0     0  2.397212193E-01  6.575893943E-01  2.619200261E+00  2.930688545E+00  1.113029770E+00  0.00000E+00  9.000E+00
      11     1     3     3     0     0  1.099591000E-01  3.953690740E-01  2.605687863E+00  2.637805377E+00  5.110000000E-04  0.00000E+00  9.000E+00
     -11     1     3     3     0     0  1.297621193E-01  2.622203203E-01  1.351239770E-02  2.928831678E-01  5.110000000E-04  0.00000E+00  9.000E+00
      21     1     1     2   501   502  7.071408463E-02 -7.514585474E-01 -9.699099536E-01  1.228989727E+00  6.143906155E-08  0.00000E+00  9.000E+00
       4     1     1     2   512     0 -3.104353039E-01  9.386915305E-02  2.003484719E-01  3.812099238E-01  0.000000000E+00  0.00000E+00  9.000E+00
#rwgt            2         309   1002621.9556453829                3     6459718           0
<weights>
0.11143E+08
0.11774E+08
0.10163E+08
0.14310E+08
0.81433E+07
0.91683E+07
0.13907E+08
0.11196E+08
0.11087E+08
0.10853E+08
0.10859E+08
0.10969E+08
0.11035E+08
0.10877E+08
0.10868E+08
0.11222E+08
0.11181E+08
0.11419E+08
0.11430E+08
0.11426E+08
0.11397E+08
0.11443E+08
0.11468E+08
0.11311E+08
0.11336E+08
0.11286E+08
0.11153E+08
0.11388E+08
0.11321E+08
0.11415E+08
0.11455E+08
0.11167E+08
0.11211E+08
0.11137E+08
0.11168E+08
0.11230E+08
0.11071E+08
0.11072E+08
0.11141E+08
0.11149E+08
0.11138E+08
0.11172E+08
0.11113E+08
0.11455E+08
0.10854E+08
</weights>
</event>
<event>
      7  10001  1.11453E+07  3.07853E+00 -1.00000E+00  2.89075E-01
       2    -1     0     0   501     0  0.000000000E+00  0.000000000E+00  1.049984640E+01  1.049984640E+01  0.000000000E+00  0.00000E+00  9.000E+00
      21    -1     0     0   502   501  0.000000000E+00  0.000000000E+00 -4.698502025E+00  4.698502025E+00  0.000000000E+00  0.00000E+00  9.000E+00
      23     2     1     2     0     0  1.439662404E+00  1.224600423E+00  1.017215441E+01  1.041415770E+01  1.187299970E+00  0.00000E+00  9.000E+00
      11     1     3     3     0     0  1.227373262E+00  2.776790136E-01  6.018183266E+00  6.148339681E+00  5.110000000E-04  0.00000E+00  9.000E+00
     -11     1     3     3     0     0  2.122891420E-01  9.469214092E-01  4.153971143E+00  4.265818016E+00  5.110000000E-04  0.00000E+00  9.000E+00
       2     1     1     2   511     0 -6.833461404E-02 -7.366259492E-02 -6.155237279E-02  1.178324741E-01  0.000000000E+00  0.00000E+00  9.000E+00
      21     1     1     2   502   511 -1.371327790E+00 -1.150937828E+00 -4.309257659E+00  4.666358255E+00  2.069920940E-06  0.00000E+00  9.000E+00
#rwgt            2         248   42325.010550650746                3     6461717           0
<weights>
0.11145E+08
0.10661E+08
0.11490E+08
0.12958E+08
0.92060E+07
0.91702E+07
0.13910E+08
0.11206E+08
0.11082E+08
0.10879E+08
0.10897E+08
0.10980E+08
0.11058E+08
0.10907E+08
0.10904E+08
0.11218E+08
0.11169E+08
0.11388E+08
0.11392E+08
0.11389E+08
0.11369E+08
0.11404E+08
0.11434E+08
0.11266E+08
0.11338E+08
0.11289E+08
0.11104E+08
0.11357E+08
0.11289E+08
0.11373E+08
0.11416E+08
0.11158E+08
0.11212E+08
0.11141E+08
0.11165E+08
0.11244E+08
0.11061E+08
0.11033E+08
0.11184E+08
0.11141E+08
0.11150E+08
0.11167E+08
0.11123E+08
0.11422E+08
0.10887E+08
</weights>
</event>
<event>
      6  10001 -1.11453E+07  8.94427E-01 -1.00000E+00  5.55416E-01
      21    -1     0     0   502   501  0.000000000E+00  0.000000000E+00  6.187058333E-03  6.187058333E-03  0.000000000E+00  0.00000E+00  9.000E+00
       2    -1     0     0   501     0  0.000000000E+00  0.000000000E+00 -1.712329464E+02  1.712329464E+02  0.000000000E+00  0.00000E+00  9.000E+00
      23     2     1     2     0     0 -2.947141233E-01 -6.489937125E-02 -1.650176186E+02  1.650226637E+02  1.254589836E+00  0.00000E+00  9.000E+00
      11     1     3     3     0     0 -6.504896739E-01 -2.065357759E-01 -5.304670506E+01  5.305109529E+01  5.110000000E-04  0.00000E+00  9.000E+00
     -11     1     3     3     0     0  3.557755506E-01  1.416364047E-01 -1.119709136E+02  1.119715684E+02  5.110000000E-04  0.00000E+00  9.000E+00
       2     1     1     2   502     0  2.947141233E-01  6.489937125E-02 -6.209140675E+00  6.216469759E+00  0.000000000E+00  0.00000E+00  9.000E+00
#rwgt            1          17  -9335827.3115050718                3     6462025           0
<weights>
-.11145E+08
-.11912E+08
-.10242E+08
-.14478E+08
-.82063E+07
-.91702E+07
-.13910E+08
-.11133E+08
-.11157E+08
-.11172E+08
-.11172E+08
-.11121E+08
-.11180E+08
-.11174E+08
-.11172E+08
-.11276E+08
-.10927E+08
-.11187E+08
-.11009E+08
-.10998E+08
-.11192E+08
-.11104E+08
-.11128E+08
-.11197E+08
-.11038E+08
-.11104E+08
-.11158E+08
-.11081E+08
-.11136E+08
-.11108E+08
-.11126E+08
-.11081E+08
-.11199E+08
-.11186E+08
-.11084E+08
-.11140E+08
-.11146E+08
-.11167E+08
-.11125E+08
-.11144E+08
-.11143E+08
-.11173E+08
-.11115E+08
-.11114E+08
-.11173E+08
</weights>
</event>
<event>
      6  10001 -1.11453E+07  8.94427E-01 -1.00000E+00  3.86482E-01
      21    -1     0     0   502   501  0.000000000E+00  0.000000000E+00  8.767227451E-03  8.767227451E-03  0.000000000E+00  0.00000E+00  9.000E+00
       2    -1     0     0   501     0  0.000000000E+00  0.000000000E+00 -2.080481710E+02  2.080481710E+02  0.000000000E+00  0.00000E+00  9.000E+00
      23     2     1     2     0     0 -9.783092671E-01  3.980869604E-01 -1.243423675E+02  1.243532379E+02  1.260105771E+00  0.00000E+00  9.000E+00
      11     1     3     3     0     0 -7.765877206E-01  8.479389873E-01 -8.932022372E+01  8.932762425E+01  5.110000000E-04  0.00000E+00  9.000E+00
     -11     1     3     3     0     0 -2.017215464E-01 -4.498520268E-01 -3.502214374E+01  3.502561364E+01  5.110000000E-04  0.00000E+00  9.000E+00
       2     1     1     2   502     0  9.783092671E-01 -3.980869604E-01 -8.369703629E+01  8.370370031E+01  0.000000000E+00  0.00000E+00  9.000E+00
#rwgt            1          17  -7092985.8962609330                3     6464912           0
<weights>
-.11145E+08
-.12341E+08
-.97839E+07
-.14999E+08
-.78394E+07
-.91702E+07
-.13910E+08
-.11129E+08
-.11160E+08
-.11173E+08
-.11169E+08
-.11102E+08
-.11203E+08
-.11171E+08
-.11170E+08
-.11303E+08
-.10894E+08
-.11231E+08
-.10958E+08
-.10939E+08
-.11240E+08
-.11103E+08
-.11137E+08
-.11180E+08
-.11056E+08
-.11129E+08
-.11144E+08
-.11033E+08
-.11199E+08
-.11103E+08
-.11136E+08
-.11064E+08
-.11217E+08
-.11228E+08
-.11031E+08
-.11138E+08
-.11148E+08
-.11171E+08
-.11120E+08
-.11160E+08
-.11129E+08
-.11166E+08
-.11122E+08
-.11116E+08
-.11172E+08
</weights>
</event>
<event>
      6  10001  1.11453E+07  8.94427E-01 -1.00000E+00  6.04841E-01
      21    -1     0     0   502   501  0.000000000E+00  0.000000000E+00  1.053176487E+01  1.053176487E+01  0.000000000E+00  0.00000E+00  9.000E+00
      -4    -1     0     0     0   502  0.000000000E+00  0.000000000E+00 -3.452346113E-01  3.452346113E-01  0.000000000E+00  0.00000E+00  9.000E+00
      23     2     1     2     0     0  3.195142664E-01  1.160385659E+00  4.076022092E+00  4.649086966E+00  1.884534233E+00  0.00000E+00  9.000E+00
      11     1     3     3     0     0  8.105875200E-01  3.484281472E-01  3.321718263E+00  3.436897843E+00  5.110000000E-04  0.00000E+00  9.000E+00
     -11     1     3     3     0     0 -4.910732536E-01  8.119575123E-01  7.543038286E-01  1.212189123E+00  5.110000000E-04  0.00000E+00  9.000E+00
      -4     1     1     2     0   501 -3.195142664E-01 -1.160385659E+00  6.110508166E+00  6.227912514E+00  0.000000000E+00  0.00000E+00  9.000E+00
#rwgt            1          12   582676.98597599403                3     6466051           0
<weights>
0.11145E+08
0.13751E+08
0.86572E+07
0.12303E+08
0.95905E+07
0.12046E+08
0.94951E+07
0.11182E+08
0.11104E+08
0.10730E+08
0.10680E+08
0.10914E+08
0.10947E+08
0.10732E+08
0.10697E+08
0.11249E+08
0.11272E+08
0.11605E+08
0.11621E+08
0.11615E+08
0.11569E+08
0.11659E+08
0.11659E+08
0.11491E+08
0.11395E+08
0.11377E+08
0.11240E+08
0.11588E+08
0.11462E+08
0.11648E+08
0.11670E+08
0.11228E+08
0.11219E+08
0.11121E+08
0.11208E+08
0.11222E+08
0.11091E+08
0.11276E+08
0.10931E+08
0.11207E+08
0.11093E+08
0.11196E+08
0.11092E+08
0.11642E+08
0.10694E+08
</weights>
</event>
<event>
      7  10001  1.11453E+07  8.94427E-01 -1.00000E+00  6.07649E-01
      21    -1     0     0   511   502  0.000000000E+00  0.000000000E+00  1.830031631E+01  1.830031631E+01  0.000000000E+00  0.00000E+00  9.000E+00
       3    -1     0     0   501     0  0.000000000E+00  0.000000000E+00 -4.000829671E-01  4.000829671E-01  0.000000000E+00  0.00000E+00  9.000E+00
      23     2     1     2     0     0 -3.494576612E-02 -2.196428338E-01  6.603816083E-01  1.429243937E+00  1.247866251E+00  0.00000E+00  9.000E+00
      11     1     3     3     0     0  3.477223486E-01 -4.405443423E-01  7.897319886E-01  9.688482978E-01  5.110000000E-04  0.00000E+00  9.000E+00
     -11     1     3     3     0     0 -3.826681147E-01  2.209015085E-01 -1.293503803E-01  4.603956391E-01  5.110000000E-04  0.00000E+00  9.000E+00
      21     1     1     2   501   502 -9.602147725E-02  3.539989346E-01  1.660762141E+01  1.661167133E+01  0.000000000E+00  0.00000E+00  9.000E+00
       3     1     1     2   511     0  1.309672434E-01 -1.343561008E-01  6.322303251E-01  6.594840139E-01  0.000000000E+00  0.00000E+00  9.000E+00
#rwgt            2         193   263948.68550193257                3     6479693           0
<weights>
0.11145E+08
0.11260E+08
0.10790E+08
0.13685E+08
0.86458E+07
0.91702E+07
0.13910E+08
0.11188E+08
0.11100E+08
0.10816E+08
0.10811E+08
0.10986E+08
0.10974E+08
0.10833E+08
0.10820E+08
0.11220E+08
0.11193E+08
0.11360E+08
0.11764E+08
0.11695E+08
0.11350E+08
0.11499E+08
0.11544E+08
0.11877E+08
0.11141E+08
0.11001E+08
0.13082E+08
0.11345E+08
0.11531E+08
0.11477E+08
0.11532E+08
0.11203E+08
0.11200E+08
0.11141E+08
0.11175E+08
0.11225E+08
0.11083E+08
0.11148E+08
0.11067E+08
0.11173E+08
0.11121E+08
0.11192E+08
0.11096E+08
0.11513E+08
0.10808E+08
</weights>
</event>
<event>
      6  10001 -1.11453E+07  8.94427E-01 -1.00000E+00  4.66309E-01
      21    -1     0     0   502   501  0.000000000E+00  0.000000000E+00  1.999990839E-02  1.999990839E-02  0.000000000E+00  0.00000E+00  9.000E+00
      -4    -1     0     0     0   502  0.000000000E+00  0.000000000E+00 -1.066813621E+02  1.066813621E+02  0.000000000E+00  0.00000E+00  9.000E+00
      23     2     1     2     0     0  2.273745665E-02 -3.369390703E-01 -1.039303350E+02  1.039495346E+02  1.969048381E+00  0.00000E+00  9.000E+00
      11     1     3     3     0     0  8.790855602E-01 -5.889550898E-01 -4.499954106E+01  4.501198013E+01  5.110000000E-04  0.00000E+00  9.000E+00
     -11     1     3     3     0     0 -8.563481035E-01  2.520160195E-01 -5.893079399E+01  5.893755445E+01  5.110000000E-04  0.00000E+00  9.000E+00
      -4     1     1     2     0   501 -2.273745665E-02  3.369390703E-01 -2.731027122E+00  2.751827405E+00  0.000000000E+00  0.00000E+00  9.000E+00
#rwgt            1          12  -2409951.7514448990                3     6481844           0
<weights>
-.11145E+08
-.12343E+08
-.97580E+07
-.15001E+08
-.78186E+07
-.91702E+07
-.13910E+08
-.11139E+08
-.11149E+08
-.11238E+08
-.11245E+08
-.11051E+08
-.11363E+08
-.11296E+08
-.11280E+08
-.11138E+08
-.11032E+08
-.11013E+08
-.10922E+08
-.10918E+08
-.11028E+08
-.10992E+08
-.10915E+08
-.11104E+08
-.10969E+08
-.11023E+08
-.11179E+08
-.11021E+08
-.11006E+08
-.10972E+08
-.10977E+08
-.11113E+08
-.11129E+08
-.11143E+08
-.11139E+08
-.11203E+08
-.11088E+08
-.10962E+08
-.11403E+08
-.10989E+08
-.11291E+08
-.11071E+08
-.11225E+08
-.11008E+08
-.11252E+08
</weights>
</event>
<event>
      6  10001  1.11453E+07  8.94427E-01 -1.00000E+00  6.07226E-01
       2    -1     0     0   501     0  0.000000000E+00  0.000000000E+00  2.106439578E+00  2.106439578E+00  0.000000000E+00  0.00000E+00  9.000E+00
      -2    -1     0     0     0   502  0.000000000E+00  0.000000000E+00 -5.742784218E-01  5.742784218E-01  0.000000000E+00  0.00000E+00  9.000E+00
      23     2     1     2     0     0 -3.633397777E-01 -1.281969198E-02  1.548387500E+00  2.316790214E+00  1.684586866E+00  0.00000E+00  9.000E+00
      11     1     3     3     0     0 -7.014270729E-01  5.234642567E-01  1.422906671E+00  1.670532377E+00  5.110000000E-04  0.00000E+00  9.000E+00
     -11     1     3     3     0     0  3.380872953E-01 -5.362839487E-01  1.254808287E-01  6.462578373E-01  5.110000000E-04  0.00000E+00  9.000E+00
      21     1     1     2   501   502  3.633397777E-01  1.281969198E-02 -1.622634387E-02  3.639277851E-01  1.236416218E-08  0.00000E+00  9.000E+00
#rwgt            1          23   415791.70454061561                3     6483065           0
<weights>
0.11159E+08
0.14814E+08
0.80947E+07
0.10203E+08
0.10923E+08
0.14119E+08
0.63488E+07
0.10743E+08
0.11643E+08
0.10777E+08
0.10684E+08
0.10987E+08
0.10883E+08
0.10766E+08
0.10705E+08
0.11153E+08
0.11444E+08
0.11642E+08
0.11595E+08
0.11567E+08
0.11620E+08
0.11685E+08
0.11645E+08
0.11641E+08
0.11265E+08
0.11459E+08
0.11208E+08
0.11657E+08
0.11380E+08
0.11693E+08
0.11663E+08
0.11171E+08
0.11307E+08
0.11157E+08
0.11210E+08
0.10807E+08
0.11571E+08
0.11338E+08
0.10910E+08
0.11217E+08
0.11104E+08
0.11284E+08
0.11027E+08
0.11643E+08
0.10723E+08
</weights>
</event>
<event>
      6  10001 -1.11453E+07  8.94427E-01 -1.00000E+00  2.44857E-01
       5    -1     0     0   501     0  0.000000000E+00  0.000000000E+00  1.567667087E+01  1.567667087E+01  0.000000000E+00  0.00000E+00  9.000E+00
      21    -1     0     0   502   501  0.000000000E+00  0.000000000E+00 -6.993577720E-02  6.993577720E-02  0.000000000E+00  0.00000E+00  9.000E+00
      23     2     1     2     0     0 -2.720816453E-01 -3.925667441E-01  9.972787679E+00  1.009244884E+01  1.474073399E+00  0.00000E+00  9.000E+00
      11     1     3     3     0     0 -1.843309393E-02 -5.866297454E-01  9.521568474E+00  9.539640491E+00  5.110000000E-04  0.00000E+00  9.000E+00
     -11     1     3     3     0     0 -2.536485513E-01  1.940630013E-01  4.512192051E-01  5.528083468E-01  5.110000000E-04  0.00000E+00  9.000E+00
       5     1     1     2   502     0  2.720816453E-01  3.925667441E-01  5.633947414E+00  5.654157809E+00  0.000000000E+00  0.00000E+00  9.000E+00
#rwgt            1          30  -82849.563392544340                3     6485248           0
<weights>
-.11145E+08
-.10155E+08
-.11220E+08
-.16538E+08
-.70396E+07
-.67131E+07
-.17682E+08
-.11222E+08
-.11063E+08
-.10918E+08
-.10959E+08
-.10998E+08
-.11087E+08
-.10955E+08
-.10962E+08
-.11214E+08
-.11130E+08
-.11325E+08
-.11323E+08
-.11323E+08
-.11310E+08
-.11329E+08
-.11370E+08
-.11191E+08
-.11322E+08
-.11248E+08
-.11025E+08
-.11284E+08
-.11245E+08
-.11291E+08
-.11343E+08
-.11136E+08
-.11212E+08
-.11150E+08
-.11148E+08
-.11250E+08
-.11051E+08
-.10953E+08
-.11275E+08
-.11120E+08
-.11168E+08
-.11161E+08
-.11129E+08
-.11360E+08
-.10941E+08
</weights>
</event>
<event>
      6  10001 -1.11453E+07  8.94427E-01 -1.00000E+00  4.58094E-01
       2    -1     0     0   501     0  0.000000000E+00  0.000000000E+00  5.645595610E+02  5.645595610E+02  0.000000000E+00  0.00000E+00  9.000E+00
      21    -1     0     0   502   501  0.000000000E+00  0.000000000E+00 -1.899102740E-03  1.899102740E-03  0.000000000E+00  0.00000E+00  9.000E+00
      23     2     1     2     0     0  5.276399521E-01  1.042020412E-01  5.008302546E+02  5.008317833E+02  1.114450062E+00  0.00000E+00  9.000E+00
      11     1     3     3     0     0  2.878820636E-01  6.074107981E-01  3.015427110E+02  3.015434601E+02  5.110000000E-04  0.00000E+00  9.000E+00
     -11     1     3     3     0     0  2.397578885E-01 -5.032087569E-01  1.992875437E+02  1.992883232E+02  5.110000000E-04  0.00000E+00  9.000E+00
       2     1     1     2   502     0 -5.276399521E-01 -1.042020412E-01  6.372740727E+01  6.372967675E+01  0.000000000E+00  0.00000E+00  9.000E+00
#rwgt            1          24  -40757739.441831015                3     6486331           0
<weights>
-.11145E+08
-.11644E+08
-.10446E+08
-.14170E+08
-.83708E+07
-.91583E+07
-.13909E+08
-.11174E+08
-.11118E+08
-.10827E+08
-.10819E+08
-.10963E+08
-.11010E+08
-.10846E+08
-.10830E+08
-.11225E+08
-.11208E+08
-.11457E+08
-.11496E+08
-.11485E+08
-.11433E+08
-.11494E+08
-.11514E+08
-.11402E+08
-.11328E+08
-.11286E+08
-.11338E+08
-.11429E+08
-.11366E+08
-.11471E+08
-.11507E+08
-.11182E+08
-.11217E+08
-.11138E+08
-.11177E+08
-.11210E+08
-.11099E+08
-.11125E+08
-.11091E+08
-.11164E+08
-.11129E+08
-.11184E+08
-.11105E+08
-.11500E+08
-.10819E+08
</weights>
</event>
<event>
      7  10001  1.11453E+07  9.44189E-01 -1.00000E+00  5.85292E-01
      21    -1     0     0   511   502  0.000000000E+00  0.000000000E+00  7.792919880E-01  7.792919880E-01  0.000000000E+00  0.00000E+00  9.000E+00
       4    -1     0     0   501     0  0.000000000E+00  0.000000000E+00 -4.141477696E+01  4.141477696E+01  0.000000000E+00  0.00000E+00  9.000E+00
      23     2     1     2     0     0 -2.602866629E-01 -6.264137758E-01 -3.874455459E+01  3.878407499E+01  1.613635477E+00  0.00000E+00  9.000E+00
      11     1     3     3     0     0  2.787998296E-01 -3.651784568E-02 -1.259570478E+00  1.290573883E+00  5.110000000E-04  0.00000E+00  9.000E+00
     -11     1     3     3     0     0 -5.390864924E-01 -5.898959301E-01 -3.748498411E+01  3.749350111E+01  5.110000000E-04  0.00000E+00  9.000E+00
      21     1     1     2   501   502  1.090774147E+00  1.075615844E+00 -3.015367309E-01  1.561301407E+00  4.018826875E-07  0.00000E+00  9.000E+00
       4     1     1     2   511     0 -8.304874837E-01 -4.492020678E-01 -1.589393659E+00  1.848692555E+00  0.000000000E+00  0.00000E+00  9.000E+00
#rwgt            2         196   1044239.4783194653                3     6490976           0
<weights>
0.11145E+08
0.11120E+08
0.10899E+08
0.13515E+08
0.87332E+07
0.91702E+07
0.13910E+08
0.11239E+08
0.11053E+08
0.10924E+08
0.11015E+08
0.10966E+08
0.11161E+08
0.11000E+08
0.11018E+08
0.11185E+08
0.11116E+08
0.11257E+08
0.11259E+08
0.11253E+08
0.11254E+08
0.11255E+08
0.11287E+08
0.11153E+08
0.11305E+08
0.11275E+08
0.11071E+08
0.11242E+08
0.11150E+08
0.11193E+08
0.11263E+08
0.11089E+08
0.11239E+08
0.11170E+08
0.11120E+08
0.11309E+08
0.10998E+08
0.10774E+08
0.11527E+08
0.11068E+08
0.11217E+08
0.11124E+08
0.11169E+08
0.11309E+08
0.10977E+08
</weights>
</event>
<event>
      7  10001  1.11453E+07  8.94427E-01 -1.00000E+00  6.07649E-01
      -2    -1     0     0     0   502  0.000000000E+00  0.000000000E+00  1.218092055E+02  1.218092055E+02  0.000000000E+00  0.00000E+00  9.000E+00
       2    -1     0     0   502     0  0.000000000E+00  0.000000000E+00 -1.604626089E+02  1.604626089E+02  0.000000000E+00  0.00000E+00  9.000E+00
      23     2     1     2     0     0  1.131085796E-01  1.029498965E-01  1.197296084E+02  1.198196985E+02  4.643021066E+00  0.00000E+00  9.000E+00
      11     1     3     3     0     0  2.002906484E+00  1.117039971E+00  7.939101966E+01  7.942413623E+01  5.110000000E-04  0.00000E+00  9.000E+00
     -11     1     3     3     0     0 -1.889797904E+00 -1.014090074E+00  4.033858870E+01  4.039556230E+01  5.110000000E-04  0.00000E+00  9.000E+00
      -2     1     1     2     0   501  6.142679438E-01  1.786624624E-01  1.983293313E+00  2.083914045E+00  0.000000000E+00  0.00000E+00  9.000E+00
       2     1     1     2   501     0 -7.273765233E-01 -2.816123589E-01 -1.603663051E+02  1.603682019E+02  0.000000000E+00  0.00000E+00  9.000E+00
#rwgt            2         110   25733026.743409954                3     6491512           0
<weights>
0.11145E+08
0.90886E+07
0.13956E+08
0.11046E+08
0.11182E+08
0.91702E+07
0.13910E+08
0.11134E+08
0.11155E+08
0.11171E+08
0.11172E+08
0.11126E+08
0.11174E+08
0.11174E+08
0.11173E+08
0.11268E+08
0.10938E+08
0.11175E+08
0.11025E+08
0.11015E+08
0.11179E+08
0.11105E+08
0.11126E+08
0.11202E+08
0.11033E+08
0.11097E+08
0.11161E+08
0.11095E+08
0.11118E+08
0.11110E+08
0.11124E+08
0.11085E+08
0.11194E+08
0.11175E+08
0.11098E+08
0.11140E+08
0.11145E+08
0.11165E+08
0.11128E+08
0.11139E+08
0.11147E+08
0.11176E+08
0.11113E+08
0.11114E+08
0.11173E+08
</weights>
</event>
<event>
      6  10001 -1.11453E+07  8.94427E-01 -1.00000E+00  5.86604E-01
      -2    -1     0     0     0   502  0.000000000E+00  0.000000000E+00  7.752237647E+01  7.752237647E+01  0.000000000E+00  0.00000E+00  9.000E+00
      21    -1     0     0   502   501  0.000000000E+00  0.000000000E+00 -1.642027797E-02  1.642027797E-02  0.000000000E+00  0.00000E+00  9.000E+00
      23     2     1     2     0     0 -5.196128465E-01  5.074472706E-01  3.303549123E+01  3.306240127E+01  1.118569212E+00  0.00000E+00  9.000E+00
      11     1     3     3     0     0 -3.939995079E-01 -9.885827511E-03  2.715539104E+01  2.715825098E+01  5.110000000E-04  0.00000E+00  9.000E+00
     -11     1     3     3     0     0 -1.256133386E-01  5.173330981E-01  5.880100187E+00  5.904150296E+00  5.110000000E-04  0.00000E+00  9.000E+00
      -2     1     1     2     0   501  5.196128465E-01 -5.074472706E-01  4.447046497E+01  4.447639548E+01  0.000000000E+00  0.00000E+00  9.000E+00
#rwgt            1           7  -2327597.6779585350                3     6491858           0
<weights>
-.11145E+08
-.12640E+08
-.94670E+07
-.15360E+08
-.75851E+07
-.91738E+07
-.13910E+08
-.11177E+08
-.11114E+08
-.10835E+08
-.10831E+08
-.10966E+08
-.11016E+08
-.10855E+08
-.10841E+08
-.11224E+08
-.11201E+08
-.11445E+08
-.11483E+08
-.11472E+08
-.11423E+08
-.11480E+08
-.11503E+08
-.11386E+08
-.11328E+08
-.11281E+08
-.11319E+08
-.11416E+08
-.11356E+08
-.11456E+08
-.11493E+08
-.11177E+08
-.11217E+08
-.11140E+08
-.11174E+08
-.11213E+08
-.11096E+08
-.11109E+08
-.11109E+08
-.11161E+08
-.11133E+08
-.11182E+08
-.11107E+08
-.11488E+08
-.10829E+08
</weights>
</event>
<event>
      7  10001  1.11453E+07  1.55739E+00 -1.00000E+00  4.07683E-01
      21    -1     0     0   501   511  0.000000000E+00  0.000000000E+00  1.093978790E+01  1.093978790E+01  0.000000000E+00  0.00000E+00  9.000E+00
      -2    -1     0     0     0   502  0.000000000E+00  0.000000000E+00 -1.607662840E+00  1.607662840E+00  0.000000000E+00  0.00000E+00  9.000E+00
      23     2     1     2     0     0  2.061381114E+00  2.030785945E+00  1.920807235E+00  4.273651622E+00  2.490223705E+00  0.00000E+00  9.000E+00
      11     1     3     3     0     0  1.354999947E-02  7.337003738E-02 -5.254716170E-01  5.307423539E-01  5.110000000E-04  0.00000E+00  9.000E+00
     -11     1     3     3     0     0  2.047831114E+00  1.957415908E+00  2.446278852E+00  3.742909268E+00  5.110000000E-04  0.00000E+00  9.000E+00
      21     1     1     2   501   502 -6.990026019E-01 -1.276200230E+00  5.993800065E+00  6.167895174E+00  8.429369702E-08  0.00000E+00  9.000E+00
      -2     1     1     2     0   511 -1.362378512E+00 -7.545857152E-01  1.417517757E+00  2.105903939E+00  0.000000000E+00  0.00000E+00  9.000E+00
#rwgt            1          23   210651.02324558154                3     6495610           0
<weights>
0.11145E+08
0.11906E+08
0.10413E+08
0.11566E+08
0.10197E+08
0.11110E+08
0.10933E+08
0.10981E+08
0.11326E+08
0.10822E+08
0.10782E+08
0.10979E+08
0.10956E+08
0.10829E+08
0.10797E+08
0.11164E+08
0.11322E+08
0.11516E+08
0.11477E+08
0.11460E+08
0.11496E+08
0.11539E+08
0.11532E+08
0.11439E+08
0.11297E+08
0.11396E+08
0.11090E+08
0.11512E+08
0.11307E+08
0.11529E+08
0.11531E+08
0.11150E+08
0.11260E+08
0.11149E+08
0.11173E+08
0.10978E+08
0.11347E+08
0.11178E+08
0.11034E+08
0.11172E+08
0.11118E+08
0.11229E+08
0.11057E+08
0.11525E+08
0.10798E+08
</weights>
</event>
<event>
      6  10001 -1.11453E+07  8.94427E-01 -1.00000E+00  6.00298E-01
       5    -1     0     0   501     0  0.000000000E+00  0.000000000E+00  3.635319400E-01  3.635319400E-01  0.000000000E+00  0.00000E+00  9.000E+00
      -5    -1     0     0     0   502  0.000000000E+00  0.000000000E+00 -2.456653220E+01  2.456653220E+01  0.000000000E+00  0.00000E+00  9.000E+00
      23     2     1     2     0     0 -6.425845484E-01  4.886398799E-01 -1.162707403E+01  1.232825458E+01  4.018124746E+00  0.00000E+00  9.000E+00
      11     1     3     3     0     0  2.697611807E-01 -1.697222673E+00 -5.344881764E+00  5.614365256E+00  5.110000000E-04  0.00000E+00  9.000E+00
     -11     1     3     3     0     0 -9.123457292E-01  2.185862553E+00 -6.282192270E+00  6.713889320E+00  5.110000000E-04  0.00000E+00  9.000E+00
      21     1     1     2   501   502  6.425845484E-01 -4.886398799E-01 -1.257592623E+01  1.260180956E+01  1.685873940E-07  0.00000E+00  9.000E+00
#rwgt            1          29  -35129.528055170806                3     6497898           0
<weights>
-.11145E+08
-.95647E+07
-.11758E+08
-.15828E+08
-.75102E+07
-.67208E+07
-.17670E+08
-.11183E+08
-.11108E+08
-.11078E+08
-.11117E+08
-.11056E+08
-.11191E+08
-.11119E+08
-.11125E+08
-.11174E+08
-.11085E+08
-.11163E+08
-.11136E+08
-.11132E+08
-.11164E+08
-.11152E+08
-.11156E+08
-.11123E+08
-.11187E+08
-.11166E+08
-.11104E+08
-.11140E+08
-.11124E+08
-.11122E+08
-.11155E+08
-.11115E+08
-.11180E+08
-.11149E+08
-.11139E+08
-.11222E+08
-.11074E+08
-.10957E+08
-.11350E+08
-.11079E+08
-.11206E+08
-.11130E+08
-.11161E+08
-.11179E+08
-.11103E+08
</weights>
</event>
<event>
      6  10001 -1.11453E+07  8.94427E-01 -1.00000E+00  3.86625E-01
       2    -1     0     0   501     0  0.000000000E+00  0.000000000E+00  6.465486333E+02  6.465486333E+02  0.000000000E+00  0.00000E+00  9.000E+00
      21    -1     0     0   502   501  0.000000000E+00  0.000000000E+00 -3.490356041E-03  3.490356041E-03  0.000000000E+00  0.00000E+00  9.000E+00
      23     2     1     2     0     0  6.809395180E-01  9.727478523E-01  4.677653781E+02  4.677684157E+02  1.196599161E+00  0.00000E+00  9.000E+00
      11     1     3     3     0     0  1.448351898E-01  1.119950985E+00  3.078889443E+02  3.078910152E+02  5.110000000E-04  0.00000E+00  9.000E+00
     -11     1     3     3     0     0  5.361043282E-01 -1.472031326E-01  1.598764338E+02  1.598774004E+02  5.110000000E-04  0.00000E+00  9.000E+00
       2     1     1     2   502     0 -6.809395180E-01 -9.727478523E-01  1.787797649E+02  1.787837080E+02  0.000000000E+00  0.00000E+00  9.000E+00
#rwgt            1          24  -41707121.210973263                3     6499884           0
<weights>
-.11145E+08
-.12284E+08
-.97551E+07
-.14941E+08
-.78165E+07
-.91645E+07
-.13909E+08
-.11186E+08
-.11104E+08
-.10853E+08
-.10860E+08
-.10973E+08
-.11031E+08
-.10877E+08
-.10868E+08
-.11221E+08
-.11186E+08
-.11417E+08
-.11450E+08
-.11441E+08
-.11397E+08
-.11446E+08
-.11474E+08
-.11345E+08
-.11327E+08
-.11275E+08
-.11264E+08
-.11386E+08
-.11331E+08
-.11418E+08
-.11459E+08
-.11167E+08
-.11217E+08
-.11142E+08
-.11167E+08
-.11221E+08
-.11086E+08
-.11072E+08
-.11148E+08
-.11151E+08
-.11141E+08
-.11178E+08
-.11112E+08
-.11459E+08
-.10854E+08
</weights>
</event>
<event>
      7  10001  1.11453E+07  8.94427E-01 -1.00000E+00  6.07649E-01
      21    -1     0     0   502   501  0.000000000E+00  0.000000000E+00  1.302488122E+00  1.302488122E+00  0.000000000E+00  0.00000E+00  9.000E+00
      -2    -1     0     0     0   502  0.000000000E+00  0.000000000E+00 -5.594666242E+00  5.594666242E+00  0.000000000E+00  0.00000E+00  9.000E+00
      23     2     1     2     0     0  5.548443365E-01 -3.541611609E-01 -5.106101606E+00  5.723558213E+00  2.500712426E+00  0.00000E+00  9.000E+00
      11     1     3     3     0     0  1.282297000E+00  4.674189589E-01 -1.934630487E+00  2.367606695E+00  5.110000000E-04  0.00000E+00  9.000E+00
     -11     1     3     3     0     0 -7.274526630E-01 -8.215801198E-01 -3.171471119E+00  3.355951518E+00  5.110000000E-04  0.00000E+00  9.000E+00
      -2     1     1     2     0   511 -3.666946437E-01  3.132072009E-01  1.861056199E-01  5.169129658E-01  0.000000000E+00  0.00000E+00  9.000E+00
      21     1     1     2   511   501 -1.881496928E-01  4.095396002E-02  6.278178655E-01  6.566831854E-01  4.470348358E-08  0.00000E+00  9.000E+00
#rwgt            2         160   10954662.910361281                3     6501185           0
<weights>
0.11145E+08
0.11448E+08
0.10575E+08
0.13913E+08
0.84734E+07
0.91702E+07
0.13910E+08
0.11144E+08
0.11142E+08
0.10865E+08
0.10868E+08
0.10987E+08
0.11013E+08
0.10886E+08
0.10877E+08
0.11165E+08
0.11263E+08
0.11428E+08
0.11405E+08
0.11392E+08
0.11413E+08
0.11434E+08
0.11462E+08
0.11316E+08
0.11324E+08
0.11371E+08
0.11045E+08
0.11415E+08
0.11246E+08
0.11410E+08
0.11437E+08
0.11132E+08
0.11247E+08
0.11166E+08
0.11144E+08
0.11080E+08
0.11229E+08
0.11046E+08
0.11155E+08
0.11148E+08
0.11140E+08
0.11209E+08
0.11078E+08
0.11446E+08
0.10867E+08
</weights>
</event>
<event>
      7  10001  1.11453E+07  8.94427E-01 -1.00000E+00  6.07649E-01
      -2    -1     0     0     0   501  0.000000000E+00  0.000000000E+00  7.727372487E+00  7.727372487E+00  0.000000000E+00  0.00000E+00  9.000E+00
      -5    -1     0     0     0   502  0.000000000E+00  0.000000000E+00 -3.431296573E-01  3.431296573E-01  0.000000000E+00  0.00000E+00  9.000E+00
      23     2     1     2     0     0 -1.726638990E-01 -1.619246338E-01  7.406222529E+00  7.567148213E+00  1.534134126E+00  0.00000E+00  9.000E+00
      11     1     3     3     0     0  6.444368075E-01  7.895721311E-02  4.190863667E+00  4.240857410E+00  5.110000000E-04  0.00000E+00  9.000E+00
     -11     1     3     3     0     0 -8.171007065E-01 -2.408818469E-01  3.215358863E+00  3.326290803E+00  5.110000000E-04  0.00000E+00  9.000E+00
      -5     1     1     2     0   501  2.300268772E-01  2.710852761E-01 -8.400782215E-02  3.653175404E-01  0.000000000E+00  0.00000E+00  9.000E+00
      -2     1     1     2     0   502 -5.736297815E-02 -1.091606424E-01  6.202812228E-02  1.380363904E-01  0.000000000E+00  0.00000E+00  9.000E+00
#rwgt            2          91   24727.887045298849                3     6501474           0
<weights>
0.11145E+08
0.12329E+08
0.95787E+07
0.14984E+08
0.76749E+07
0.91702E+07
0.13910E+08
0.11193E+08
0.11095E+08
0.10825E+08
0.10821E+08
0.10959E+08
0.11015E+08
0.10845E+08
0.10831E+08
0.11229E+08
0.11203E+08
0.11461E+08
0.11479E+08
0.11473E+08
0.11436E+08
0.11493E+08
0.11514E+08
0.11360E+08
0.11349E+08
0.11304E+08
0.11198E+08
0.11432E+08
0.11357E+08
0.11468E+08
0.11505E+08
0.11182E+08
0.11216E+08
0.11137E+08
0.11177E+08
0.11228E+08
0.11080E+08
0.11114E+08
0.11099E+08
0.11163E+08
0.11130E+08
0.11180E+08
0.11109E+08
0.11499E+08
0.10819E+08
</weights>
</event>
<event>
      7  10001  1.11453E+07  8.94427E-01 -1.00000E+00  6.07649E-01
       2    -1     0     0   501     0  0.000000000E+00  0.000000000E+00  9.863403396E+00  9.863403396E+00  0.000000000E+00  0.00000E+00  9.000E+00
      21    -1     0     0   511   502  0.000000000E+00  0.000000000E+00 -5.636273648E+00  5.636273648E+00  0.000000000E+00  0.00000E+00  9.000E+00
      23     2     1     2     0     0 -2.583713674E-01 -3.313871950E-02  9.714848150E+00  9.803606489E+00  1.290182806E+00  0.00000E+00  9.000E+00
      11     1     3     3     0     0 -1.063186004E-01 -6.593126935E-01  5.326255165E+00  5.367959688E+00  5.110000000E-04  0.00000E+00  9.000E+00
     -11     1     3     3     0     0 -1.520527670E-01  6.261739740E-01  4.388592985E+00  4.435646801E+00  5.110000000E-04  0.00000E+00  9.000E+00
      21     1     1     2   501   502  7.718915574E-01  1.201784679E-01 -4.607841539E+00  4.673592097E+00  3.625608999E-07  0.00000E+00  9.000E+00
       2     1     1     2   511     0 -5.135201900E-01 -8.703974845E-02 -8.798768629E-01  1.022478458E+00  0.000000000E+00  0.00000E+00  9.000E+00
#rwgt            2         249   1619896.8834166310                3     6505506           0
<weights>
0.11145E+08
0.10615E+08
0.11550E+08
0.12901E+08
0.92541E+07
0.91702E+07
0.13910E+08
0.11207E+08
0.11081E+08
0.10883E+08
0.10903E+08
0.10981E+08
0.11062E+08
0.10912E+08
0.10910E+08
0.11217E+08
0.11167E+08
0.11382E+08
0.11386E+08
0.11383E+08
0.11363E+08
0.11396E+08
0.11427E+08
0.11258E+08
0.11338E+08
0.11289E+08
0.11097E+08
0.11351E+08
0.11283E+08
0.11365E+08
0.11408E+08
0.11156E+08
0.11212E+08
0.11141E+08
0.11163E+08
0.11245E+08
0.11059E+08
0.11024E+08
0.11193E+08
0.11139E+08
0.11152E+08
0.11166E+08
0.11124E+08
0.11416E+08
0.10893E+08
</weights>
</event>
<event>
      7  10001  1.11453E+07  1.90590E+00 -1.00000E+00  3.63152E-01
       4    -1     0     0   501     0  0.000000000E+00  0.000000000E+00  1.290169272E+02  1.290169272E+02  0.000000000E+00  0.00000E+00  9.000E+00
      21    -1     0     0   502   501  0.000000000E+00  0.000000000E+00 -4.442564457E-02  4.442564457E-02  0.000000000E+00  0.00000E+00  9.000E+00
      23     2     1     2     0     0  3.159316491E-01  1.549899775E+00  7.495969884E+01  7.498445995E+01  1.100355585E+00  0.00000E+00  9.000E+00
      11     1     3     3     0     0  5.082758512E-01  1.599622258E+00  6.009793658E+01  6.012136989E+01  5.110000000E-04  0.00000E+00  9.000E+00
     -11     1     3     3     0     0 -1.923442021E-01 -4.972248257E-02  1.486176226E+01  1.486309006E+01  5.110000000E-04  0.00000E+00  9.000E+00
       4     1     1     2   511     0 -9.953051836E-01 -1.103244527E+00  4.576460457E+01  4.578871927E+01  0.000000000E+00  0.00000E+00  9.000E+00
      21     1     1     2   502   511  6.793735345E-01 -4.466552483E-01  8.248198116E+00  8.288173591E+00  2.665600750E-07  0.00000E+00  9.000E+00
#rwgt            2         308   2699564.8084880547                3     6505567           0
<weights>
0.11145E+08
0.11662E+08
0.10263E+08
0.14174E+08
0.82229E+07
0.91702E+07
0.13910E+08
0.11170E+08
0.11122E+08
0.10816E+08
0.10803E+08
0.10959E+08
0.11001E+08
0.10833E+08
0.10814E+08
0.11227E+08
0.11216E+08
0.11472E+08
0.11515E+08
0.11503E+08
0.11448E+08
0.11514E+08
0.11531E+08
0.11424E+08
0.11330E+08
0.11290E+08
0.11363E+08
0.11445E+08
0.11381E+08
0.11492E+08
0.11526E+08
0.11187E+08
0.11217E+08
0.11137E+08
0.11180E+08
0.11206E+08
0.11104E+08
0.11145E+08
0.11071E+08
0.11170E+08
0.11125E+08
0.11187E+08
0.11102E+08
0.11516E+08
0.10805E+08
</weights>
</event>
<event>
      7  10001  1.11453E+07  4.02366E+00 -1.00000E+00  2.59709E-01
      -5    -1     0     0     0   502  0.000000000E+00  0.000000000E+00  2.449788336E+01  2.449788336E+01  0.000000000E+00  0.00000E+00  9.000E+00
      21    -1     0     0   502   501  0.000000000E+00  0.000000000E+00 -7.996752218E-01  7.996752218E-01  0.000000000E+00  0.00000E+00  9.000E+00
      23     2     1     2     0     0 -1.797525605E-01  2.007698510E-01  2.403620510E+01  2.407901249E+01  1.409633698E+00  0.00000E+00  9.000E+00
      11     1     3     3     0     0  2.683194261E-01  3.281837977E-01  2.124298289E+01  2.124721211E+01  5.110000000E-04  0.00000E+00  9.000E+00
     -11     1     3     3     0     0 -4.480719866E-01 -1.274139467E-01  2.793222208E+00  2.831800378E+00  5.110000000E-04  0.00000E+00  9.000E+00
      -5     1     1     2     0   512  5.271111215E-02 -2.731964193E-01  3.882884407E-01  4.776846847E-01  0.000000000E+00  0.00000E+00  9.000E+00
      21     1     1     2   512   501  1.270414484E-01  7.242656829E-02 -7.262854051E-01  7.408614088E-01  7.633118912E-07  0.00000E+00  9.000E+00
#rwgt            2          11   700454.17736817070                3     6506331           0
<weights>
0.11143E+08
0.12041E+08
0.97087E+07
0.14634E+08
0.77792E+07
0.91683E+07
0.13907E+08
0.11193E+08
0.11090E+08
0.10845E+08
0.10847E+08
0.10966E+08
0.11028E+08
0.10867E+08
0.10856E+08
0.11223E+08
0.11187E+08
0.11430E+08
0.11445E+08
0.11440E+08
0.11407E+08
0.11457E+08
0.11480E+08
0.11329E+08
0.11336E+08
0.11287E+08
0.11178E+08
0.11399E+08
0.11332E+08
0.11430E+08
0.11469E+08
0.11171E+08
0.11212E+08
0.11137E+08
0.11170E+08
0.11226E+08
0.11076E+08
0.11085E+08
0.11127E+08
0.11153E+08
0.11135E+08
0.11174E+08
0.11110E+08
0.11467E+08
0.10843E+08
</weights>
</event>
<event>
      7  10001  1.11453E+07  8.94427E-01 -1.00000E+00  6.07649E-01
      21    -1     0     0   511   502  0.000000000E+00  0.000000000E+00  3.863609539E+01  3.863609539E+01  0.000000000E+00  0.00000E+00  9.000E+00
       2    -1     0     0   501     0  0.000000000E+00  0.000000000E+00 -1.400999751E+01  1.400999751E+01  0.000000000E+00  0.00000E+00  9.000E+00
      23     2     1     2     0     0  6.660361222E-01  1.093178622E-01 -1.379389962E+01  1.411659648E+01  2.924222130E+00  0.00000E+00  9.000E+00
      11     1     3     3     0     0  9.456398493E-01  1.393542203E+00 -7.449282927E+00  7.637277720E+00  5.110000000E-04  0.00000E+00  9.000E+00
     -11     1     3     3     0     0 -2.796037272E-01 -1.284224340E+00 -6.344616691E+00  6.479318762E+00  5.110000000E-04  0.00000E+00  9.000E+00
      21     1     1     2   501   502 -1.998039381E-01 -6.426780669E-01  3.604054750E+01  3.604683094E+01  1.168007728E-06  0.00000E+00  9.000E+00
       2     1     1     2   511     0 -4.662321840E-01  5.333602046E-01  2.379449999E+00  2.482665474E+00  0.000000000E+00  0.00000E+00  9.000E+00
#rwgt            2         190   22336972.059344359                3     6511522           0
<weights>
0.11145E+08
0.99317E+07
0.12519E+08
0.12071E+08
0.10031E+08
0.91702E+07
0.13910E+08
0.11184E+08
0.11104E+08
0.10934E+08
0.10963E+08
0.11065E+08
0.11008E+08
0.10961E+08
0.10966E+08
0.11100E+08
0.11297E+08
0.11249E+08
0.11439E+08
0.11441E+08
0.11234E+08
0.11336E+08
0.11356E+08
0.11263E+08
0.11277E+08
0.11276E+08
0.11081E+08
0.11419E+08
0.11070E+08
0.11319E+08
0.11321E+08
0.11147E+08
0.11201E+08
0.11100E+08
0.11226E+08
0.11099E+08
0.11203E+08
0.10998E+08
0.11229E+08
0.11107E+08
0.11175E+08
0.11211E+08
0.11076E+08
0.11351E+08
0.10952E+08
</weights>
</event>
<event>
      7  10001  1.11453E+07  8.94427E-01 -1.00000E+00  6.07649E-01
      21    -1     0     0   501   511  0.000000000E+00  0.000000000E+00  1.499249254E+00  1.499249254E+00  0.000000000E+00  0.00000E+00  9.000E+00
      -2    -1     0     0     0   502  0.000000000E+00  0.000000000E+00 -2.305870508E+01  2.305870508E+01  0.000000000E+00  0.00000E+00  9.000E+00
      23     2     1     2     0     0  5.788473553E-02  4.145388980E-01 -2.189028515E+01  2.192484231E+01  1.157122732E+00  0.00000E+00  9.000E+00
      11     1     3     3     0     0  1.866718782E-01  7.549847719E-01 -1.821025216E+01  1.822685196E+01  5.110000000E-04  0.00000E+00  9.000E+00
     -11     1     3     3     0     0 -1.287871427E-01 -3.404458739E-01 -3.680032995E+00  3.697990350E+00  5.110000000E-04  0.00000E+00  9.000E+00
      21     1     1     2   501   502 -6.414526010E-01 -3.008401741E-01  1.308995526E+00  1.488433920E+00  4.860611686E-07  0.00000E+00  9.000E+00
      -2     1     1     2     0   511  5.835678655E-01 -1.136987239E-01 -9.781661940E-01  1.144678102E+00  0.000000000E+00  0.00000E+00  9.000E+00
#rwgt            2         161   1423817.3787852386                3     6512134           0
<weights>
0.11145E+08
0.10912E+08
0.11186E+08
0.13262E+08
0.89624E+07
0.91702E+07
0.13910E+08
0.11215E+08
0.11074E+08
0.10921E+08
0.10974E+08
0.11012E+08
0.11050E+08
0.10965E+08
0.10975E+08
0.11121E+08
0.11246E+08
0.11328E+08
0.11296E+08
0.11275E+08
0.11327E+08
0.11310E+08
0.11355E+08
0.11233E+08
0.11291E+08
0.11337E+08
0.11037E+08
0.11306E+08
0.11138E+08
0.11272E+08
0.11316E+08
0.11090E+08
0.11254E+08
0.11219E+08
0.11081E+08
0.11065E+08
0.11233E+08
0.10914E+08
0.11331E+08
0.11118E+08
0.11163E+08
0.11227E+08
0.11058E+08
0.11344E+08
0.10955E+08
</weights>
</event>
<event>
      7  10001  1.11453E+07  5.21360E+00 -1.00000E+00  2.33896E-01
      21    -1     0     0   502   501  0.000000000E+00  0.000000000E+00  5.996065070E+01  5.996065070E+01  0.000000000E+00  0.00000E+00  9.000E+00
      -2    -1     0     0     0   502  0.000000000E+00  0.000000000E+00 -1.154722024E+00  1.154722024E+00  0.000000000E+00  0.00000E+00  9.000E+00
      23     2     1     2     0     0 -8.464307677E-01 -6.253305090E-01  3.443625331E+00  5.698459425E+00  4.416605156E+00  0.00000E+00  9.000E+00
      11     1     3     3     0     0 -1.328161686E+00 -1.290503905E+00  4.194842209E+00  4.585424213E+00  5.110000000E-04  0.00000E+00  9.000E+00
     -11     1     3     3     0     0  4.817309179E-01  6.651733956E-01 -7.512168781E-01  1.113035212E+00  5.110000000E-04  0.00000E+00  9.000E+00
      -2     1     1     2     0   511  8.630592880E-01 -2.984781409E-02  7.413053286E+00  7.463184391E+00  0.000000000E+00  0.00000E+00  9.000E+00
      21     1     1     2   511   501 -1.662852033E-02  6.551783231E-01  4.794925005E+01  4.795372890E+01  6.743495762E-07  0.00000E+00  9.000E+00
#rwgt            2         160   2165737.8306332571                3     6513449           0
<weights>
0.11145E+08
0.10471E+08
0.11766E+08
0.12726E+08
0.94274E+07
0.91702E+07
0.13910E+08
0.11090E+08
0.11207E+08
0.10843E+08
0.10827E+08
0.10977E+08
0.10999E+08
0.10859E+08
0.10839E+08
0.11191E+08
0.11253E+08
0.11463E+08
0.11448E+08
0.11437E+08
0.11443E+08
0.11485E+08
0.11495E+08
0.11369E+08
0.11317E+08
0.11345E+08
0.11113E+08
0.11447E+08
0.11308E+08
0.11466E+08
0.11487E+08
0.11157E+08
0.11238E+08
0.11146E+08
0.11170E+08
0.11102E+08
0.11213E+08
0.11119E+08
0.11096E+08
0.11160E+08
0.11131E+08
0.11202E+08
0.11086E+08
0.11485E+08
0.10832E+08
</weights>
</event>
<event>
      7  10001 -1.11453E+07  1.14486E+00 -1.00000E+00  5.12869E-01
       5    -1     0     0   501     0  0.000000000E+00  0.000000000E+00  2.830639229E-01  2.830639229E-01  0.000000000E+00  0.00000E+00  9.000E+00
      21    -1     0     0   502   501  0.000000000E+00  0.000000000E+00 -3.465998807E+00  3.465998807E+00  0.000000000E+00  0.00000E+00  9.000E+00
      23     2     1     2     0     0 -3.882775568E-01  4.131728375E-01 -2.571101260E+00  2.821127958E+00  1.013276869E+00  0.00000E+00  9.000E+00
      11     1     3     3     0     0 -2.761281914E-01  5.494573953E-01 -6.607094710E-01  9.026003953E-01  5.110000000E-04  0.00000E+00  9.000E+00
     -11     1     3     3     0     0 -1.121493654E-01 -1.362845578E-01 -1.910391789E+00  1.918527563E+00  5.110000000E-04  0.00000E+00  9.000E+00
       5     1     1     2   512     0 -1.144795003E-02 -3.563628071E-02 -2.867673070E-01  2.891997379E-01  0.000000000E+00  0.00000E+00  9.000E+00
      21     1     1     2   502   512  3.997255068E-01 -3.775365568E-01 -3.250663166E-01  6.387350332E-01  1.666000469E-08  0.00000E+00  9.000E+00
#rwgt            1          30  -11605.402157666380                3     6514023           0
<weights>
-.11145E+08
0.59278E+07
-.24745E+08
-.23256E+08
-.48334E+07
0.91198E+07
-.41987E+08
-.11151E+08
-.11159E+08
-.12212E+08
-.12545E+08
-.11606E+08
-.11859E+08
-.12335E+08
-.12500E+08
-.10945E+08
-.10467E+08
-.97227E+07
-.96668E+07
-.96555E+07
-.98476E+07
-.95157E+07
-.96115E+07
-.10001E+08
-.10530E+08
-.10391E+08
-.10964E+08
-.96168E+07
-.10130E+08
-.94396E+07
-.95135E+07
-.10729E+08
-.11075E+08
-.11245E+08
-.10904E+08
-.11142E+08
-.11102E+08
-.10041E+08
-.12602E+08
-.10747E+08
-.11490E+08
-.10984E+08
-.11314E+08
-.96885E+07
-.12434E+08
</weights>
</event>
<event>
      6  10001 -1.11453E+07  8.94427E-01 -1.00000E+00  1.76048E-01
      21    -1     0     0   502   501  0.000000000E+00  0.000000000E+00  3.512055220E-03  3.512055220E-03  0.000000000E+00  0.00000E+00  9.000E+00
      -3    -1     0     0     0   502  0.000000000E+00  0.000000000E+00 -1.478691896E+02  1.478691896E+02  0.000000000E+00  0.00000E+00  9.000E+00
      23     2     1     2     0     0  2.709055414E-01 -1.095135337E-03 -1.301696685E+02  1.301746191E+02  1.102479983E+00  0.00000E+00  9.000E+00
      11     1     3     3     0     0 -2.214669507E-01  3.961337307E-01 -7.391901587E+01  7.392040907E+01  5.110000000E-04  0.00000E+00  9.000E+00
     -11     1     3     3     0     0  4.923724921E-01 -3.972288660E-01 -5.625065266E+01  5.625421003E+01  5.110000000E-04  0.00000E+00  9.000E+00
      -3     1     1     2     0   501 -2.709055414E-01  1.095135337E-03 -1.769600901E+01  1.769808255E+01  0.000000000E+00  0.00000E+00  9.000E+00
#rwgt            1          13  -492931.48131369008                3     6515715           0
<weights>
-.11145E+08
-.11493E+08
-.10796E+08
-.13969E+08
-.86500E+07
-.91702E+07
-.13910E+08
-.11063E+08
-.11222E+08
-.11236E+08
-.11332E+08
-.11482E+08
-.10866E+08
-.11311E+08
-.11264E+08
-.12794E+08
-.90360E+07
-.11727E+08
-.10046E+08
-.99493E+07
-.11760E+08
-.10975E+08
-.10978E+08
-.96820E+07
-.12577E+08
-.11745E+08
-.99303E+07
-.10001E+08
-.12231E+08
-.10914E+08
-.11061E+08
-.11269E+08
-.10970E+08
-.11205E+08
-.11095E+08
-.11132E+08
-.11150E+08
-.11196E+08
-.11115E+08
-.11083E+08
-.11189E+08
-.11252E+08
-.11030E+08
-.10986E+08
-.11285E+08
</weights>
</event>
<event>
      6  10001  1.11453E+07  8.94427E-01 -1.00000E+00  6.06337E-01
       4    -1     0     0   501     0  0.000000000E+00  0.000000000E+00  3.086495219E+01  3.086495219E+01  0.000000000E+00  0.00000E+00  9.000E+00
      -4    -1     0     0     0   502  0.000000000E+00  0.000000000E+00 -2.471881265E-01  2.471881265E-01  0.000000000E+00  0.00000E+00  9.000E+00
      23     2     1     2     0     0 -1.777810636E-01  3.379088009E-01  3.060960406E+01  3.073023058E+01  2.693217825E+00  0.00000E+00  9.000E+00
      11     1     3     3     0     0  7.846809077E-01 -7.444686125E-01  1.897707915E+01  1.900787971E+01  5.110000000E-04  0.00000E+00  9.000E+00
     -11     1     3     3     0     0 -9.624619713E-01  1.082377413E+00  1.163252491E+01  1.172235087E+01  5.110000000E-04  0.00000E+00  9.000E+00
      21     1     1     2   501   502  1.777810636E-01 -3.379088009E-01  8.160006497E-03  3.819097406E-01  2.715847451E-08  0.00000E+00  9.000E+00
#rwgt            1          27   237557.11791802966                3     6516867           0
<weights>
0.11145E+08
0.13358E+08
0.89721E+07
0.11767E+08
0.97421E+07
0.12017E+08
0.95398E+07
0.11175E+08
0.11113E+08
0.10756E+08
0.10716E+08
0.10929E+08
0.10961E+08
0.10762E+08
0.10731E+08
0.11242E+08
0.11255E+08
0.11565E+08
0.11594E+08
0.11585E+08
0.11532E+08
0.11617E+08
0.11622E+08
0.11481E+08
0.11369E+08
0.11342E+08
0.11299E+08
0.11544E+08
0.11443E+08
0.11603E+08
0.11628E+08
0.11217E+08
0.11219E+08
0.11127E+08
0.11199E+08
0.11212E+08
0.11101E+08
0.11242E+08
0.10970E+08
0.11196E+08
0.11102E+08
0.11195E+08
0.11093E+08
0.11605E+08
0.10727E+08
</weights>
</event>
<event>
      7  10001  1.11453E+07  2.46052E+00 -1.00000E+00  3.19395E-01
      21    -1     0     0   502   511  0.000000000E+00  0.000000000E+00  4.866415720E+01  4.866415720E+01  0.000000000E+00  0.00000E+00  9.000E+00
       2    -1     0     0   501     0  0.000000000E+00  0.000000000E+00 -1.913998378E+02  1.913998378E+02  0.000000000E+00  0.00000E+00  9.000E+00
      23     2     1     2     0     0 -1.254641915E+00 -1.765398508E+00 -1.638972404E+02  1.639278668E+02  2.312861259E+00  0.00000E+00  9.000E+00
      11     1     3     3     0     0 -3.287936956E-01 -1.171220563E+00 -1.400321213E+02  1.400374052E+02  5.110000000E-04  0.00000E+00  9.000E+00
     -11     1     3     3     0     0 -9.258482190E-01 -5.941779450E-01 -2.386511910E+01  2.389046153E+01  5.110000000E-04  0.00000E+00  9.000E+00
       2     1     1     2   502     0  1.371785442E+00 -6.923282200E-01 -2.743466012E+01  2.747765800E+01  0.000000000E+00  0.00000E+00  9.000E+00
      21     1     1     2   501   511 -1.171435275E-01  2.457726728E+00  4.859621988E+01  4.865847028E+01  9.536743164E-07  0.00000E+00  9.000E+00
#rwgt            1          17   4749709.9463846060                3     6519563           0
<weights>
0.11145E+08
0.12727E+08
0.94511E+07
0.13168E+08
0.90721E+07
0.10723E+08
0.11526E+08
0.11142E+08
0.11148E+08
0.11153E+08
0.11165E+08
0.11150E+08
0.11129E+08
0.11162E+08
0.11162E+08
0.11266E+08
0.10942E+08
0.11133E+08
0.11103E+08
0.11104E+08
0.11130E+08
0.11118E+08
0.11135E+08
0.11236E+08
0.11015E+08
0.11062E+08
0.11183E+08
0.11170E+08
0.11038E+08
0.11129E+08
0.11126E+08
0.11095E+08
0.11187E+08
0.11116E+08
0.11170E+08
0.11150E+08
0.11135E+08
0.11156E+08
0.11134E+08
0.11123E+08
0.11160E+08
0.11191E+08
0.11096E+08
0.11127E+08
0.11161E+08
</weights>
</event>
<event>
      7  10001  1.11453E+07  2.67933E+00 -1.00000E+00  3.07126E-01
       2    -1     0     0   502     0  0.000000000E+00  0.000000000E+00  2.021914030E+01  2.021914030E+01  0.000000000E+00  0.00000E+00  9.000E+00
       4    -1     0     0   501     0  0.000000000E+00  0.000000000E+00 -1.550659882E+00  1.550659882E+00  0.000000000E+00  0.00000E+00  9.000E+00
      23     2     1     2     0     0 -3.058409863E-01  2.278157384E-01  2.502672368E-01  1.546331628E+00  1.477521267E+00  0.00000E+00  9.000E+00
      11     1     3     3     0     0  1.750105538E-01 -2.763094876E-02 -5.503158952E-01  5.781349401E-01  5.110000000E-04  0.00000E+00  9.000E+00
     -11     1     3     3     0     0 -4.808515401E-01  2.554466872E-01  8.005831320E-01  9.681966876E-01  5.110000000E-04  0.00000E+00  9.000E+00
       4     1     1     2   502     0  7.824010276E-01 -2.864421512E+00  1.981454604E+00  3.569765302E+00  0.000000000E+00  0.00000E+00  9.000E+00
       2     1     1     2   501     0 -4.765600412E-01  2.636605773E+00  1.643675858E+01  1.665370326E+01  0.000000000E+00  0.00000E+00  9.000E+00
#rwgt            1          19   405062.29491309327                3     6524250           0
<weights>
0.11145E+08
0.13536E+08
0.90395E+07
0.11471E+08
0.10134E+08
0.12367E+08
0.90028E+07
0.11198E+08
0.11088E+08
0.10738E+08
0.10697E+08
0.10913E+08
0.10963E+08
0.10744E+08
0.10713E+08
0.11247E+08
0.11265E+08
0.11593E+08
0.11594E+08
0.11591E+08
0.11556E+08
0.11638E+08
0.11644E+08
0.11440E+08
0.11414E+08
0.11399E+08
0.11139E+08
0.11577E+08
0.11436E+08
0.11623E+08
0.11649E+08
0.11221E+08
0.11220E+08
0.11120E+08
0.11206E+08
0.11243E+08
0.11068E+08
0.11235E+08
0.10959E+08
0.11200E+08
0.11099E+08
0.11189E+08
0.11100E+08
0.11626E+08
0.10708E+08
</weights>
</event>
<event>
      6  10001 -1.11453E+07  8.94427E-01 -1.00000E+00  1.71337E-01
      21    -1     0     0   502   501  0.000000000E+00  0.000000000E+00  1.989574649E-02  1.989574649E-02  0.000000000E+00  0.00000E+00  9.000E+00
       3    -1     0     0   501     0  0.000000000E+00  0.000000000E+00 -4.731334294E+01  4.731334294E+01  0.000000000E+00  0.00000E+00  9.000E+00
      23     2     1     2     0     0 -1.203312665E-01 -4.560108534E-01 -3.741319190E+01  3.744173374E+01  1.383499740E+00  0.00000E+00  9.000E+00
      11     1     3     3     0     0 -1.224757798E-02  4.981001780E-01 -1.163063327E+01  1.164130080E+01  5.110000000E-04  0.00000E+00  9.000E+00
     -11     1     3     3     0     0 -1.080836885E-01 -9.541110314E-01 -2.578255863E+01  2.580043294E+01  5.110000000E-04  0.00000E+00  9.000E+00
       3     1     1     2   502     0  1.203312665E-01  4.560108534E-01 -9.880255293E+00  9.891504950E+00  0.000000000E+00  0.00000E+00  9.000E+00
#rwgt            1          18  -1189722.0109118619                3     6528248           0
<weights>
-.11145E+08
-.12565E+08
-.95799E+07
-.15272E+08
-.76759E+07
-.91702E+07
-.13910E+08
-.11181E+08
-.11108E+08
-.10970E+08
-.11121E+08
-.11267E+08
-.10867E+08
-.11067E+08
-.11069E+08
-.12012E+08
-.99552E+07
-.11377E+08
-.10928E+08
-.10976E+08
-.11295E+08
-.11167E+08
-.11265E+08
-.10794E+08
-.11392E+08
-.10035E+08
-.11451E+08
-.10453E+08
-.12047E+08
-.11086E+08
-.11262E+08
-.11192E+08
-.11117E+08
-.11218E+08
-.11080E+08
-.11255E+08
-.11044E+08
-.10908E+08
-.11394E+08
-.11108E+08
-.11171E+08
-.11230E+08
-.11054E+08
-.11236E+08
-.11049E+08
</weights>
</event>
<event>
      6  10001 -1.11453E+07  8.94427E-01 -1.00000E+00  2.80294E-01
      21    -1     0     0   502   501  0.000000000E+00  0.000000000E+00  1.803574230E-02  1.803574230E-02  0.000000000E+00  0.00000E+00  9.000E+00
       2    -1     0     0   501     0  0.000000000E+00  0.000000000E+00 -4.620152964E+02  4.620152964E+02  0.000000000E+00  0.00000E+00  9.000E+00
      23     2     1     2     0     0 -5.317896290E-01 -3.594803010E-01 -4.557047773E+02  4.557081939E+02  1.643762850E+00  0.00000E+00  9.000E+00
      11     1     3     3     0     0 -8.661759868E-02  6.493354058E-01 -1.508309284E+02  1.508323510E+02  5.110000000E-04  0.00000E+00  9.000E+00
     -11     1     3     3     0     0 -4.451720303E-01 -1.008815707E+00 -3.048738489E+02  3.048758430E+02  5.110000000E-04  0.00000E+00  9.000E+00
       2     1     1     2   502     0  5.317896290E-01  3.594803010E-01 -6.292483353E+00  6.325138183E+00  0.000000000E+00  0.00000E+00  9.000E+00
#rwgt            1          17  -63267305.306760661                3     6528694           0
<weights>
-.11145E+08
-.11708E+08
-.10425E+08
-.14229E+08
-.83529E+07
-.91702E+07
-.13910E+08
-.11130E+08
-.11160E+08
-.11165E+08
-.11151E+08
-.10988E+08
-.11324E+08
-.11157E+08
-.11153E+08
-.11283E+08
-.10936E+08
-.11466E+08
-.10687E+08
-.10623E+08
-.11504E+08
-.11108E+08
-.11171E+08
-.11046E+08
-.11205E+08
-.11340E+08
-.11022E+08
-.10753E+08
-.11573E+08
-.11068E+08
-.11188E+08
-.11026E+08
-.11262E+08
-.11510E+08
-.10697E+08
-.11098E+08
-.11188E+08
-.11148E+08
-.11149E+08
-.11252E+08
-.11049E+08
-.11134E+08
-.11156E+08
-.11132E+08
-.11159E+08
</weights>
</event>
<event>
      6  10001  1.11453E+07  8.94427E-01 -1.00000E+00  6.06791E-01
      -2    -1     0     0     0   502  0.000000000E+00  0.000000000E+00  3.148953119E-02  3.148953119E-02  0.000000000E+00  0.00000E+00  9.000E+00
       2    -1     0     0   501     0  0.000000000E+00  0.000000000E+00 -1.044451921E+03  1.044451921E+03  0.000000000E+00  0.00000E+00  9.000E+00
      23     2     1     2     0     0  3.724072695E-03 -7.676136964E-01 -1.039158582E+03  1.039165864E+03  3.813718790E+00  0.00000E+00  9.000E+00
      11     1     3     3     0     0 -9.978029220E-02 -2.320738411E+00 -6.594942691E+02  6.594983599E+02  5.110000000E-04  0.00000E+00  9.000E+00
     -11     1     3     3     0     0  1.035043649E-01  1.553124715E+00 -3.796643134E+02  3.796675042E+02  5.110000000E-04  0.00000E+00  9.000E+00
      21     1     1     2   501   502 -3.724072695E-03  7.676136964E-01 -5.261849326E+00  5.317546708E+00  5.430241572E-07  0.00000E+00  9.000E+00
#rwgt            1           8   12319530.309143808                3     6528998           0
<weights>
0.11145E+08
0.10832E+08
0.11467E+08
0.12083E+08
0.10084E+08
0.99835E+07
0.12661E+08
0.11141E+08
0.11150E+08
0.11164E+08
0.11130E+08
0.10896E+08
0.11422E+08
0.11151E+08
0.11143E+08
0.10642E+08
0.11892E+08
0.11615E+08
0.10517E+08
0.10407E+08
0.11687E+08
0.11137E+08
0.11151E+08
0.10867E+08
0.11405E+08
0.11768E+08
0.10779E+08
0.10453E+08
0.11976E+08
0.11044E+08
0.11218E+08
0.11270E+08
0.11016E+08
0.11889E+08
0.10283E+08
0.11022E+08
0.11260E+08
0.11102E+08
0.11203E+08
0.11361E+08
0.10956E+08
0.11107E+08
0.11185E+08
0.11141E+08
0.11150E+08
</weights>
</event>
<event>
      6  10001 -1.11453E+07  8.94427E-01 -1.00000E+00  2.43812E-01
      -5    -1     0     0     0   502  0.000000000E+00  0.000000000E+00  1.209772826E+01  1.209772826E+01  0.000000000E+00  0.00000E+00  9.000E+00
      21    -1     0     0   502   501  0.000000000E+00  0.000000000E+00 -4.929702126E-02  4.929702126E-02  0.000000000E+00  0.00000E+00  9.000E+00
      23     2     1     2     0     0 -2.413252392E-01  2.467231248E-01  1.047499952E+01  1.053618775E+01  1.080058904E+00  0.00000E+00  9.000E+00
      11     1     3     3     0     0 -1.468257679E-01  5.605743203E-01  3.086859524E+00  3.140780692E+00  5.110000000E-04  0.00000E+00  9.000E+00
     -11     1     3     3     0     0 -9.449947124E-02 -3.138511955E-01  7.388139992E+00  7.395407056E+00  5.110000000E-04  0.00000E+00  9.000E+00
      -5     1     1     2     0   501  2.413252392E-01 -2.467231248E-01  1.573431724E+00  1.610837534E+00  0.000000000E+00  0.00000E+00  9.000E+00
#rwgt            1           1  -279173.11315625848                3     6532271           0
<weights>
-.11145E+08
-.10761E+08
-.10816E+08
-.15732E+08
-.74674E+07
-.76365E+07
-.16264E+08
-.11214E+08
-.11072E+08
-.10902E+08
-.10937E+08
-.10992E+08
-.11075E+08
-.10937E+08
-.10941E+08
-.11215E+08
-.11143E+08
-.11346E+08
-.11352E+08
-.11350E+08
-.11330E+08
-.11355E+08
-.11394E+08
-.11224E+08
-.11325E+08
-.11256E+08
-.11073E+08
-.11307E+08
-.11263E+08
-.11319E+08
-.11369E+08
-.11143E+08
-.11214E+08
-.11149E+08
-.11152E+08
-.11245E+08
-.11058E+08
-.10977E+08
-.11249E+08
-.11127E+08
-.11162E+08
-.11164E+08
-.11125E+08
-.11383E+08
-.10921E+08
</weights>
</event>
<event>
      7  10001  1.11453E+07  8.94427E-01 -1.00000E+00  6.07649E-01
      21    -1     0     0   502   501  0.000000000E+00  0.000000000E+00  3.797449609E-02  3.797449609E-02  0.000000000E+00  0.00000E+00  9.000E+00
       2    -1     0     0   501     0  0.000000000E+00  0.000000000E+00 -3.306630939E+01  3.306630939E+01  0.000000000E+00  0.00000E+00  9.000E+00
      23     2     1     2     0     0 -2.632972216E-02  5.220680661E-01 -2.338634991E+01  2.342721292E+01  1.280505617E+00  0.00000E+00  9.000E+00
      11     1     3     3     0     0 -2.246741840E-02  5.077886800E-01 -2.340092236E+01  2.340644189E+01  5.110000000E-04  0.00000E+00  9.000E+00
     -11     1     3     3     0     0 -3.862303752E-03  1.427938609E-02  1.457245177E-02  2.077103100E-02  5.110000000E-04  0.00000E+00  9.000E+00
       2     1     1     2   511     0  5.268497246E-02 -2.246267906E-01 -8.258743969E+00  8.261966161E+00  0.000000000E+00  0.00000E+00  9.000E+00
      21     1     1     2   502   511 -2.635525031E-02 -2.974412755E-01 -1.383241012E+00  1.415104805E+00  1.490116119E-08  0.00000E+00  9.000E+00
#rwgt            2         189   71068442.084129825                3     6535833           0
<weights>
0.11145E+08
0.11719E+08
0.10320E+08
0.14243E+08
0.82692E+07
0.91702E+07
0.13910E+08
0.11197E+08
0.11094E+08
0.11023E+08
0.11068E+08
0.11125E+08
0.11037E+08
0.11057E+08
0.11067E+08
0.11087E+08
0.11244E+08
0.11118E+08
0.11362E+08
0.11372E+08
0.11107E+08
0.11225E+08
0.11230E+08
0.11238E+08
0.11168E+08
0.11169E+08
0.11130E+08
0.11355E+08
0.10957E+08
0.11216E+08
0.11202E+08
0.11144E+08
0.11169E+08
0.11074E+08
0.11251E+08
0.11114E+08
0.11180E+08
0.10995E+08
0.11284E+08
0.11082E+08
0.11197E+08
0.11211E+08
0.11076E+08
0.11240E+08
0.11051E+08
</weights>
</event>
<event>
      7  10001  1.11453E+07  8.94427E-01 -1.00000E+00  6.07649E-01
      21    -1     0     0   501   512  0.000000000E+00  0.000000000E+00  3.883574124E+00  3.883574124E+00  0.000000000E+00  0.00000E+00  9.000E+00
      -2    -1     0     0     0   502  0.000000000E+00  0.000000000E+00 -1.112413191E+01  1.112413191E+01  0.000000000E+00  0.00000E+00  9.000E+00
      23     2     1     2     0     0  8.588117451E-01  1.183695869E+00 -8.047010540E+00  8.268120395E+00  1.211916959E+00  0.00000E+00  9.000E+00
      11     1     3     3     0     0  2.052974227E-01 -1.937456059E-01 -2.483516437E+00  2.499507661E+00  5.110000000E-04  0.00000E+00  9.000E+00
     -11     1     3     3     0     0  6.535143224E-01  1.377441475E+00 -5.563494103E+00  5.768612734E+00  5.110000000E-04  0.00000E+00  9.000E+00
      21     1     1     2   501   502 -1.222294050E+00 -8.602770286E-01  3.603157808E+00  3.900874966E+00  3.625608999E-07  0.00000E+00  9.000E+00
      -2     1     1     2     0   512  3.634823052E-01 -3.234188408E-01 -2.796705053E+00  2.838710673E+00  0.000000000E+00  0.00000E+00  9.000E+00
#rwgt            2         161   446427.60004929267                3     6539675           0
<weights>
0.11145E+08
0.10865E+08
0.11245E+08
0.13205E+08
0.90102E+07
0.91702E+07
0.13910E+08
0.11179E+08
0.11107E+08
0.10881E+08
0.10905E+08
0.10995E+08
0.11025E+08
0.10910E+08
0.10910E+08
0.11146E+08
0.11262E+08
0.11392E+08
0.11372E+08
0.11356E+08
0.11383E+08
0.11389E+08
0.11430E+08
0.11281E+08
0.11322E+08
0.11370E+08
0.11031E+08
0.11379E+08
0.11202E+08
0.11358E+08
0.11394E+08
0.11112E+08
0.11254E+08
0.11187E+08
0.11120E+08
0.11072E+08
0.11233E+08
0.10984E+08
0.11224E+08
0.11136E+08
0.11149E+08
0.11216E+08
0.11070E+08
0.11411E+08
0.10896E+08
</weights>
</event>
<event>
      6  10001 -1.11453E+07  8.94427E-01 -1.00000E+00  4.12298E-01
       4    -1     0     0   501     0  0.000000000E+00  0.000000000E+00  7.650328075E+01  7.650328075E+01  0.000000000E+00  0.00000E+00  9.000E+00
      21    -1     0     0   502   501  0.000000000E+00  0.000000000E+00 -2.123045975E-02  2.123045975E-02  0.000000000E+00  0.00000E+00  9.000E+00
      23     2     1     2     0     0  9.295831304E-01 -1.493592304E-01  3.368585803E+01  3.371796376E+01  1.130316604E+00  0.00000E+00  9.000E+00
      11     1     3     3     0     0  4.440113593E-01 -6.329765554E-01  2.003552510E+01  2.005043819E+01  5.110000000E-04  0.00000E+00  9.000E+00
     -11     1     3     3     0     0  4.855717711E-01  4.836173250E-01  1.365033293E+01  1.366752556E+01  5.110000000E-04  0.00000E+00  9.000E+00
       4     1     1     2   502     0 -9.295831304E-01  1.493592304E-01  4.279619226E+01  4.280654746E+01  0.000000000E+00  0.00000E+00  9.000E+00
#rwgt            1          28  -1430308.4723017300                3     6544315           0
<weights>
-.11145E+08
-.13352E+08
-.87946E+07
-.16240E+08
-.70470E+07
-.91634E+07
-.13909E+08
-.11174E+08
-.11118E+08
-.10853E+08
-.10849E+08
-.10974E+08
-.11026E+08
-.10874E+08
-.10859E+08
-.11222E+08
-.11192E+08
-.11428E+08
-.11458E+08
-.11447E+08
-.11407E+08
-.11461E+08
-.11477E+08
-.11376E+08
-.11312E+08
-.11269E+08
-.11320E+08
-.11398E+08
-.11344E+08
-.11437E+08
-.11472E+08
-.11176E+08
-.11212E+08
-.11139E+08
-.11173E+08
-.11209E+08
-.11099E+08
-.11111E+08
-.11116E+08
-.11156E+08
-.11137E+08
-.11180E+08
-.11109E+08
-.11467E+08
-.10848E+08
</weights>
</event>
<event>
      7  10001  1.11453E+07  8.94427E-01 -1.00000E+00  6.07649E-01
       2    -1     0     0   502     0  0.000000000E+00  0.000000000E+00  7.291477875E+01  7.291477875E+01  0.000000000E+00  0.00000E+00  9.000E+00
       5    -1     0     0   501     0  0.000000000E+00  0.000000000E+00 -4.361549086E-02  4.361549086E-02  0.000000000E+00  0.00000E+00  9.000E+00
      23     2     1     2     0     0 -5.146592309E-01 -8.424239553E-02  4.403743719E+01  4.405216802E+01  1.012749746E+00  0.00000E+00  9.000E+00
      11     1     3     3     0     0 -5.132492640E-01 -4.325286577E-02  9.012135860E+00  9.026842672E+00  5.110000000E-04  0.00000E+00  9.000E+00
     -11     1     3     3     0     0 -1.409966889E-03 -4.098952975E-02  3.502530133E+01  3.502532535E+01  5.110000000E-04  0.00000E+00  9.000E+00
       5     1     1     2   502     0  4.950841356E-01  3.161076228E-01  2.377855839E+00  2.449332709E+00  0.000000000E+00  0.00000E+00  9.000E+00
       2     1     1     2   501     0  1.957509529E-02 -2.318652273E-01  2.645587023E+01  2.645689351E+01  0.000000000E+00  0.00000E+00  9.000E+00
#rwgt            2         259   778905.90657005261                3     6548020           0
<weights>
0.11145E+08
0.11911E+08
0.99559E+07
0.14525E+08
0.79790E+07
0.91392E+07
0.13907E+08
0.11172E+08
0.11119E+08
0.10808E+08
0.10792E+08
0.10955E+08
0.10995E+08
0.10823E+08
0.10803E+08
0.11229E+08
0.11220E+08
0.11484E+08
0.11525E+08
0.11513E+08
0.11459E+08
0.11527E+08
0.11543E+08
0.11429E+08
0.11336E+08
0.11297E+08
0.11344E+08
0.11458E+08
0.11388E+08
0.11506E+08
0.11539E+08
0.11191E+08
0.11218E+08
0.11136E+08
0.11182E+08
0.11208E+08
0.11102E+08
0.11155E+08
0.11059E+08
0.11173E+08
0.11122E+08
0.11188E+08
0.11101E+08
0.11528E+08
0.10794E+08
</weights>
</event>
<event>
      7  10001  1.11453E+07  1.26758E+00 -1.00000E+00  4.78683E-01
       2    -1     0     0   501     0  0.000000000E+00  0.000000000E+00  9.151171093E+02  9.151171093E+02  0.000000000E+00  0.00000E+00  9.000E+00
      21    -1     0     0   511   502  0.000000000E+00  0.000000000E+00 -7.307563632E-02  7.307563632E-02  0.000000000E+00  0.00000E+00  9.000E+00
      23     2     1     2     0     0  6.563412177E-02  9.729725511E-01  7.673814971E+02  7.673829105E+02  1.103715967E+00  0.00000E+00  9.000E+00
      11     1     3     3     0     0 -2.106723702E-01  1.131307453E+00  6.220980884E+02  6.220991528E+02  5.110000000E-04  0.00000E+00  9.000E+00
     -11     1     3     3     0     0  2.763064920E-01 -1.583349013E-01  1.452834087E+02  1.452837578E+02  5.110000000E-04  0.00000E+00  9.000E+00
      21     1     1     2   501   502  7.192731200E-01 -1.968296160E+00  1.576781214E+01  1.590645917E+01  4.460403188E-07  0.00000E+00  9.000E+00
       2     1     1     2   511     0 -7.849072418E-01  9.953236093E-01  1.318947244E+02  1.319008153E+02  0.000000000E+00  0.00000E+00  9.000E+00
#rwgt            2         249   45997578.521927506                3     6557790           0
<weights>
0.11143E+08
0.10241E+08
0.11994E+08
0.12447E+08
0.96105E+07
0.91683E+07
0.13907E+08
0.11172E+08
0.11114E+08
0.10818E+08
0.10807E+08
0.10958E+08
0.11002E+08
0.10835E+08
0.10818E+08
0.11225E+08
0.11209E+08
0.11464E+08
0.11503E+08
0.11492E+08
0.11440E+08
0.11504E+08
0.11522E+08
0.11406E+08
0.11330E+08
0.11287E+08
0.11323E+08
0.11437E+08
0.11372E+08
0.11482E+08
0.11516E+08
0.11183E+08
0.11215E+08
0.11135E+08
0.11176E+08
0.11208E+08
0.11097E+08
0.11134E+08
0.11077E+08
0.11165E+08
0.11124E+08
0.11183E+08
0.11101E+08
0.11507E+08
0.10808E+08
</weights>
</event>
<event>
      6  10001 -1.11453E+07  8.94427E-01 -1.00000E+00  4.52889E-01
      21    -1     0     0   502   501  0.000000000E+00  0.000000000E+00  9.807352991E-03  9.807352991E-03  0.000000000E+00  0.00000E+00  9.000E+00
      -2    -1     0     0     0   502  0.000000000E+00  0.000000000E+00 -2.453237989E+02  2.453237989E+02  0.000000000E+00  0.00000E+00  9.000E+00
      23     2     1     2     0     0 -5.010210336E-01 -2.244122093E-01 -2.314816338E+02  2.314903587E+02  1.933387085E+00  0.00000E+00  9.000E+00
      11     1     3     3     0     0  6.697293664E-01 -3.781781279E-01 -6.529009756E+01  6.529462762E+01  5.110000000E-04  0.00000E+00  9.000E+00
     -11     1     3     3     0     0 -1.170750400E+00  1.537659186E-01 -1.661915363E+02  1.661957311E+02  5.110000000E-04  0.00000E+00  9.000E+00
      -2     1     1     2     0   501  5.010210336E-01  2.244122093E-01 -1.383235769E+01  1.384324753E+01  0.000000000E+00  0.00000E+00  9.000E+00
#rwgt            1          14  -1857662.6844363201                3     6558459           0
<weights>
-.11145E+08
-.11582E+08
-.10559E+08
-.14076E+08
-.84606E+07
-.91702E+07
-.13910E+08
-.11016E+08
-.11267E+08
-.11363E+08
-.11314E+08
-.11143E+08
-.11260E+08
-.11323E+08
-.11328E+08
-.11030E+08
-.11199E+08
-.11037E+08
-.10894E+08
-.10874E+08
-.11058E+08
-.10951E+08
-.10966E+08
-.11106E+08
-.10969E+08
-.10980E+08
-.11191E+08
-.10975E+08
-.10967E+08
-.10992E+08
-.10978E+08
-.11273E+08
-.10955E+08
-.11312E+08
-.10982E+08
-.11212E+08
-.11063E+08
-.11411E+08
-.10869E+08
-.11130E+08
-.11142E+08
-.11312E+08
-.10966E+08
-.10935E+08
-.11345E+08
</weights>
</event>
<event>
      6  10001 -1.11453E+07  8.94427E-01 -1.00000E+00  2.42840E-01
       5    -1     0     0   501     0  0.000000000E+00  0.000000000E+00  1.079296285E+00  1.079296285E+00  0.000000000E+00  0.00000E+00  9.000E+00
      -5    -1     0     0     0   502  0.000000000E+00  0.000000000E+00 -2.423553793E+00  2.423553793E+00  0.000000000E+00  0.00000E+00  9.000E+00
      23     2     1     2     0     0 -2.705242111E-01  2.584823975E-01 -1.367294010E+00  3.127980529E+00  2.788327954E+00  0.00000E+00  9.000E+00
      11     1     3     3     0     0 -1.021169600E+00  6.573052308E-01  3.049224414E-01  1.252124385E+00  5.110000000E-04  0.00000E+00  9.000E+00
     -11     1     3     3     0     0  7.506453888E-01 -3.988228333E-01 -1.672216451E+00  1.875856144E+00  5.110000000E-04  0.00000E+00  9.000E+00
      21     1     1     2   501   502  2.705242111E-01 -2.584823975E-01  2.303650152E-02  3.748695493E-01  2.048115770E-08  0.00000E+00  9.000E+00
#rwgt            1          29  -276162.08891124278                3     6560925           0
<weights>
-.11145E+08
-.11374E+08
-.10154E+08
-.16509E+08
-.70018E+07
-.76581E+07
-.16231E+08
-.11206E+08
-.11082E+08
-.10894E+08
-.10918E+08
-.10986E+08
-.11069E+08
-.10925E+08
-.10924E+08
-.11214E+08
-.11160E+08
-.11366E+08
-.11372E+08
-.11368E+08
-.11348E+08
-.11379E+08
-.11411E+08
-.11251E+08
-.11328E+08
-.11277E+08
-.11107E+08
-.11334E+08
-.11273E+08
-.11346E+08
-.11391E+08
-.11151E+08
-.11212E+08
-.11144E+08
-.11160E+08
-.11243E+08
-.11061E+08
-.11013E+08
-.11211E+08
-.11134E+08
-.11156E+08
-.11164E+08
-.11126E+08
-.11400E+08
-.10906E+08
</weights>
</event>
<event>
      7  10001 -1.11453E+07  8.95077E-01 -1.00000E+00  6.07343E-01
      21    -1     0     0   511   501  0.000000000E+00  0.000000000E+00  2.224806597E+02  2.224806597E+02  0.000000000E+00  0.00000E+00  9.000E+00
      -2    -1     0     0     0   502  0.000000000E+00  0.000000000E+00 -2.971071346E+00  2.971071346E+00  0.000000000E+00  0.00000E+00  9.000E+00
      23     2     1     2     0     0 -1.339496675E-01  5.746124027E-01 -2.151617992E+00  3.589205042E+00  2.811549559E+00  0.00000E+00  9.000E+00
      11     1     3     3     0     0  3.763474824E-01 -9.013497616E-01 -5.961303513E-02  9.785820330E-01  5.110000000E-04  0.00000E+00  9.000E+00
     -11     1     3     3     0     0 -5.102971499E-01  1.475962164E+00 -2.092004957E+00  2.610623009E+00  5.110000000E-04  0.00000E+00  9.000E+00
      -2     1     1     2     0   501 -4.491044194E-01  1.045119844E-01  4.330976431E-01  6.326065941E-01  0.000000000E+00  0.00000E+00  9.000E+00
      21     1     1     2   511   502  5.830540869E-01 -6.791243870E-01  2.212281087E+02  2.212299194E+02  2.697398305E-06  0.00000E+00  9.000E+00
#rwgt            1          14  -227176.93116110796                3     6561476           0
<weights>
-.11145E+08
0.95222E+06
-.21841E+08
-.15585E+08
-.76084E+07
0.16511E+07
-.30522E+08
-.11924E+08
-.10341E+08
-.11105E+08
-.11346E+08
-.10985E+08
-.11458E+08
-.11218E+08
-.11321E+08
-.11436E+08
-.10556E+08
-.10878E+08
-.11073E+08
-.11119E+08
-.10862E+08
-.10879E+08
-.11034E+08
-.10651E+08
-.11444E+08
-.10811E+08
-.11294E+08
-.10738E+08
-.11245E+08
-.10769E+08
-.10962E+08
-.11193E+08
-.11025E+08
-.11099E+08
-.11141E+08
-.12268E+08
-.99708E+07
-.10497E+08
-.11799E+08
-.11013E+08
-.11280E+08
-.10921E+08
-.11385E+08
-.11017E+08
-.11235E+08
</weights>
</event>
<event>
      6  10001 -1.11453E+07  8.94427E-01 -1.00000E+00  1.52256E-01
       2    -1     0     0   501     0  0.000000000E+00  0.000000000E+00  5.928090093E+01  5.928090093E+01  0.000000000E+00  0.00000E+00  9.000E+00
      21    -1     0     0   502   501  0.000000000E+00  0.000000000E+00 -1.888155891E-02  1.888155891E-02  0.000000000E+00  0.00000E+00  9.000E+00
      23     2     1     2     0     0  3.335323843E-01 -4.286776856E-01  3.744831164E+01  3.747931381E+01  1.424047239E+00  0.00000E+00  9.000E+00
      11     1     3     3     0     0  6.164426725E-01  1.638456261E-01  8.636688657E+00  8.660210053E+00  5.110000000E-04  0.00000E+00  9.000E+00
     -11     1     3     3     0     0 -2.829102882E-01 -5.925233117E-01  2.881162298E+01  2.881910375E+01  5.110000000E-04  0.00000E+00  9.000E+00
       2     1     1     2   502     0 -3.335323843E-01  4.286776856E-01  2.181370774E+01  2.182046869E+01  0.000000000E+00  0.00000E+00  9.000E+00
#rwgt            1          24  -5808487.1852837084                3     6586064           0
<weights>
-.11145E+08
-.12514E+08
-.96199E+07
-.15218E+08
-.77083E+07
-.91646E+07
-.13909E+08
-.11176E+08
-.11115E+08
-.10831E+08
-.10825E+08
-.10965E+08
-.11013E+08
-.10850E+08
-.10835E+08
-.11225E+08
-.11205E+08
-.11451E+08
-.11490E+08
-.11479E+08
-.11429E+08
-.11488E+08
-.11509E+08
-.11394E+08
-.11328E+08
-.11284E+08
-.11324E+08
-.11423E+08
-.11362E+08
-.11465E+08
-.11500E+08
-.11180E+08
-.11216E+08
-.11139E+08
-.11175E+08
-.11212E+08
-.11097E+08
-.11118E+08
-.11098E+08
-.11163E+08
-.11131E+08
-.11183E+08
-.11106E+08
-.11494E+08
-.10824E+08
</weights>
</event>
<event>
      7  10001  1.11453E+07  4.25516E+00 -1.00000E+00  2.54340E-01
      21    -1     0     0   502   501  0.000000000E+00  0.000000000E+00  1.944386113E-01  1.944386113E-01  0.000000000E+00  0.00000E+00  9.000E+00
      -4    -1     0     0     0   502  0.000000000E+00  0.000000000E+00 -8.552616725E+01  8.552616725E+01  0.000000000E+00  0.00000E+00  9.000E+00
      23     2     1     2     0     0  1.005404055E+00 -1.140973972E+00 -7.581406852E+01  7.584004884E+01  1.275681948E+00  0.00000E+00  9.000E+00
      11     1     3     3     0     0 -6.709397354E-02 -7.082170205E-01 -4.240961932E+01  4.241558539E+01  5.110000000E-04  0.00000E+00  9.000E+00
     -11     1     3     3     0     0  1.072498028E+00 -4.327569518E-01 -3.340444920E+01  3.342446346E+01  5.110000000E-04  0.00000E+00  9.000E+00
      -4     1     1     2     0   511  4.096377346E-02  8.720985044E-01 -7.818013835E+00  7.866611351E+00  0.000000000E+00  0.00000E+00  9.000E+00
      21     1     1     2   511   501 -1.046367828E+00  2.688754680E-01 -1.699646286E+00  2.013945667E+00  3.175031506E-07  0.00000E+00  9.000E+00
#rwgt            2         154   611948.30220864690                3     6590132           0
<weights>
0.11148E+08
0.11218E+08
0.10747E+08
0.13681E+08
0.86129E+07
0.91411E+07
0.13910E+08
0.11179E+08
0.11116E+08
0.11140E+08
0.11186E+08
0.11026E+08
0.11306E+08
0.11215E+08
0.11210E+08
0.11155E+08
0.11048E+08
0.11081E+08
0.11011E+08
0.11005E+08
0.11092E+08
0.11065E+08
0.11014E+08
0.11112E+08
0.11071E+08
0.11097E+08
0.11150E+08
0.11079E+08
0.11043E+08
0.11026E+08
0.11056E+08
0.11098E+08
0.11172E+08
0.11159E+08
0.11128E+08
0.11245E+08
0.11056E+08
0.10872E+08
0.11497E+08
0.11010E+08
0.11276E+08
0.11088E+08
0.11211E+08
0.11096E+08
0.11174E+08
</weights>
</event>
<event>
      7  10001  1.11453E+07  3.79910E+00 -1.00000E+00  2.65526E-01
      21    -1     0     0   502   501  0.000000000E+00  0.000000000E+00  4.638333100E-02  4.638333100E-02  0.000000000E+00  0.00000E+00  9.000E+00
       2    -1     0     0   501     0  0.000000000E+00  0.000000000E+00 -1.012046806E+02  1.012046806E+02  0.000000000E+00  0.00000E+00  9.000E+00
      23     2     1     2     0     0  1.504313762E-01  1.750422299E-01 -9.122163895E+01  9.122976471E+01  1.195527414E+00  0.00000E+00  9.000E+00
      11     1     3     3     0     0  5.913887705E-01  3.587870866E-02 -7.248354984E+01  7.248597123E+01  5.110000000E-04  0.00000E+00  9.000E+00
     -11     1     3     3     0     0 -4.409573943E-01  1.391635212E-01 -1.873808911E+01  1.874379347E+01  5.110000000E-04  0.00000E+00  9.000E+00
       2     1     1     2   512     0  1.267695670E-01 -3.690352152E-02 -9.405598230E+00  9.406524888E+00  0.000000000E+00  0.00000E+00  9.000E+00
      21     1     1     2   502   512 -2.772009432E-01 -1.381387084E-01 -5.310600582E-01  6.147743090E-01  1.324444177E-07  0.00000E+00  9.000E+00
#rwgt            2         189   1634579.2184051487                3     6592758           0
<weights>
0.11145E+08
0.11294E+08
0.10784E+08
0.13726E+08
0.86410E+07
0.91702E+07
0.13910E+08
0.11152E+08
0.11138E+08
0.11151E+08
0.11167E+08
0.11157E+08
0.11122E+08
0.11167E+08
0.11167E+08
0.11190E+08
0.11043E+08
0.11093E+08
0.11145E+08
0.11149E+08
0.11089E+08
0.11117E+08
0.11116E+08
0.11228E+08
0.11022E+08
0.11067E+08
0.11178E+08
0.11198E+08
0.10994E+08
0.11126E+08
0.11112E+08
0.11121E+08
0.11159E+08
0.11101E+08
0.11196E+08
0.11136E+08
0.11149E+08
0.11127E+08
0.11172E+08
0.11104E+08
0.11177E+08
0.11191E+08
0.11096E+08
0.11123E+08
0.11162E+08
</weights>
</event>
<event>
      6  10001 -1.11453E+07  8.94427E-01 -1.00000E+00  1.92066E-01
      21    -1     0     0   502   501  0.000000000E+00  0.000000000E+00  3.182080248E-03  3.182080248E-03  0.000000000E+00  0.00000E+00  9.000E+00
      -2    -1     0     0     0   502  0.000000000E+00  0.000000000E+00 -1.382361380E+02  1.382361380E+02  0.000000000E+00  0.00000E+00  9.000E+00
      23     2     1     2     0     0 -2.662991670E-01 -1.237597279E-02 -1.187124461E+02  1.187169900E+02  1.003885228E+00  0.00000E+00  9.000E+00
      11     1     3     3     0     0 -5.163226844E-01 -1.420681326E-01 -3.523929388E+01  3.524336258E+01  5.110000000E-04  0.00000E+00  9.000E+00
     -11     1     3     3     0     0  2.500235173E-01  1.296921598E-01 -8.347315221E+01  8.347362741E+01  5.110000000E-04  0.00000E+00  9.000E+00
      -2     1     1     2     0   501  2.662991670E-01  1.237597279E-02 -1.952050986E+01  1.952233012E+01  0.000000000E+00  0.00000E+00  9.000E+00
#rwgt            1          14  -2562363.8469731421                3     6593009           0
<weights>
-.11145E+08
-.12025E+08
-.10130E+08
-.14615E+08
-.81164E+07
-.91702E+07
-.13910E+08
-.11122E+08
-.11165E+08
-.11240E+08
-.11249E+08
-.11116E+08
-.11203E+08
-.11264E+08
-.11259E+08
-.11044E+08
-.11189E+08
-.11090E+08
-.10933E+08
-.10908E+08
-.11111E+08
-.11018E+08
-.11000E+08
-.11131E+08
-.11010E+08
-.11061E+08
-.11151E+08
-.11035E+08
-.10973E+08
-.11025E+08
-.11027E+08
-.11176E+08
-.11072E+08
-.11298E+08
-.10994E+08
-.11094E+08
-.11172E+08
-.11177E+08
-.11132E+08
-.11103E+08
-.11168E+08
-.11288E+08
-.10992E+08
-.11019E+08
-.11255E+08
</weights>
</event>
<event>
      6  10001 -1.11453E+07  8.94427E-01 -1.00000E+00  3.75527E-01
      21    -1     0     0   502   501  0.000000000E+00  0.000000000E+00  3.681650878E-03  3.681650878E-03  0.000000000E+00  0.00000E+00  9.000E+00
       2    -1     0     0   501     0  0.000000000E+00  0.000000000E+00 -5.439658338E+02  5.439658338E+02  0.000000000E+00  0.00000E+00  9.000E+00
      23     2     1     2     0     0 -2.031223483E-01  1.705755902E-01 -5.369890504E+02  5.369913708E+02  1.556185365E+00  0.00000E+00  9.000E+00
      11     1     3     3     0     0 -4.281640575E-01  2.367940480E-01 -5.287912981E+01  5.288139338E+01  5.110000000E-04  0.00000E+00  9.000E+00
     -11     1     3     3     0     0  2.250417091E-01 -6.621845777E-02 -4.841099206E+02  4.841099774E+02  5.110000000E-04  0.00000E+00  9.000E+00
       2     1     1     2   502     0  2.031223483E-01 -1.705755902E-01 -6.973101761E+00  6.978144660E+00  0.000000000E+00  0.00000E+00  9.000E+00
#rwgt            1          17  -45673615.826965705                3     6593563           0
<weights>
-.11145E+08
-.12334E+08
-.97021E+07
-.14990E+08
-.77738E+07
-.91702E+07
-.13910E+08
-.11131E+08
-.11159E+08
-.11164E+08
-.11147E+08
-.10965E+08
-.11348E+08
-.11155E+08
-.11150E+08
-.11225E+08
-.11020E+08
-.11509E+08
-.10638E+08
-.10564E+08
-.11554E+08
-.11111E+08
-.11172E+08
-.11012E+08
-.11243E+08
-.11403E+08
-.10986E+08
-.10692E+08
-.11655E+08
-.11061E+08
-.11196E+08
-.11041E+08
-.11248E+08
-.11580E+08
-.10618E+08
-.11085E+08
-.11200E+08
-.11139E+08
-.11159E+08
-.11273E+08
-.11031E+08
-.11129E+08
-.11162E+08
-.11134E+08
-.11156E+08
</weights>
</event>
<event>
      6  10001 -1.11453E+07  8.94427E-01 -1.00000E+00  4.84161E-01
      21    -1     0     0   502   501  0.000000000E+00  0.000000000E+00  9.012127102E+01  9.012127102E+01  0.000000000E+00  0.00000E+00  9.000E+00
      -5    -1     0     0     0   502  0.000000000E+00  0.000000000E+00 -1.309716642E-02  1.309716642E-02  0.000000000E+00  0.00000E+00  9.000E+00
      23     2     1     2     0     0 -7.137440480E-01  4.575346926E-02  3.644752605E+01  3.646895431E+01  1.025158170E+00  0.00000E+00  9.000E+00
      11     1     3     3     0     0 -3.421452720E-02 -3.176696666E-01  4.166908567E+00  4.179140093E+00  5.110000000E-04  0.00000E+00  9.000E+00
     -11     1     3     3     0     0 -6.795295208E-01  3.634231359E-01  3.228061748E+01  3.228981421E+01  5.110000000E-04  0.00000E+00  9.000E+00
      -5     1     1     2     0   501  7.137440480E-01 -4.575346926E-02  5.366064781E+01  5.366541388E+01  0.000000000E+00  0.00000E+00  9.000E+00
#rwgt            1          11  -101926.04317049967                3     6594741           0
<weights>
-.11145E+08
-.12731E+08
-.92807E+07
-.15486E+08
-.74366E+07
-.91621E+07
-.13909E+08
-.11170E+08
-.11122E+08
-.10815E+08
-.10801E+08
-.10958E+08
-.11000E+08
-.10831E+08
-.10812E+08
-.11227E+08
-.11217E+08
-.11474E+08
-.11517E+08
-.11505E+08
-.11450E+08
-.11516E+08
-.11533E+08
-.11425E+08
-.11331E+08
-.11291E+08
-.11361E+08
-.11447E+08
-.11382E+08
-.11494E+08
-.11528E+08
-.11187E+08
-.11217E+08
-.11137E+08
-.11180E+08
-.11207E+08
-.11104E+08
-.11146E+08
-.11069E+08
-.11170E+08
-.11124E+08
-.11187E+08
-.11102E+08
-.11518E+08
-.10803E+08
</weights>
</event>
<event>
      7  10001  1.11453E+07  1.56057E+00 -1.00000E+00  4.07178E-01
      -1    -1     0     0     0   502  0.000000000E+00  0.000000000E+00  1.529728441E-01  1.529728441E-01  0.000000000E+00  0.00000E+00  9.000E+00
       1    -1     0     0   501     0  0.000000000E+00  0.000000000E+00 -2.200507083E+01  2.200507083E+01  0.000000000E+00  0.00000E+00  9.000E+00
      23     2     1     2     0     0  1.795804369E-01  2.061273790E-01 -1.718832333E+01  1.736384736E+01  2.447447310E+00  0.00000E+00  9.000E+00
      11     1     3     3     0     0 -2.699715765E-02  5.219305725E-01 -1.684673500E+01  1.685483968E+01  5.110000000E-04  0.00000E+00  9.000E+00
     -11     1     3     3     0     0  2.065775946E-01 -3.158031935E-01 -3.415883373E-01  5.090076747E-01  5.110000000E-04  0.00000E+00  9.000E+00
      21     1     1     2   501   511  1.126187786E-01 -1.044232995E-01 -4.352869007E+00  4.355577551E+00  5.960464478E-08  0.00000E+00  9.000E+00
      21     1     1     2   511   502 -2.921992156E-01 -1.017040795E-01 -3.109056404E-01  4.386187622E-01  8.330002343E-09  0.00000E+00  9.000E+00
#rwgt            1          10   115964.39695435163                3     6595227           0
<weights>
0.11145E+08
0.13136E+08
0.94550E+07
0.90211E+07
0.11918E+08
0.13759E+08
0.68662E+07
0.11149E+08
0.11132E+08
0.10885E+08
0.10827E+08
0.10825E+08
0.11127E+08
0.10867E+08
0.10868E+08
0.11013E+08
0.11310E+08
0.11585E+08
0.11138E+08
0.11043E+08
0.11602E+08
0.11421E+08
0.11513E+08
0.11276E+08
0.11391E+08
0.11623E+08
0.10891E+08
0.11165E+08
0.11426E+08
0.11373E+08
0.11464E+08
0.11116E+08
0.11262E+08
0.11367E+08
0.10814E+08
0.10796E+08
0.11502E+08
0.11030E+08
0.11143E+08
0.11146E+08
0.11128E+08
0.11321E+08
0.10957E+08
0.11449E+08
0.10867E+08
</weights>
</event>
<event>
      6  10001 -1.11453E+07  8.94427E-01 -1.00000E+00  5.74664E-01
      21    -1     0     0   502   501  0.000000000E+00  0.000000000E+00  2.080023928E-03  2.080023928E-03  0.000000000E+00  0.00000E+00  9.000E+00
       2    -1     0     0   501     0  0.000000000E+00  0.000000000E+00 -3.919626853E+02  3.919626853E+02  0.000000000E+00  0.00000E+00  9.000E+00
      23     2     1     2     0     0  4.605717521E-01 -5.914932154E-02 -3.298228932E+02  3.298253182E+02  1.176448760E+00  0.00000E+00  9.000E+00
      11     1     3     3     0     0  5.449803197E-01 -3.796957491E-01 -1.009549262E+02  1.009571112E+02  5.110000000E-04  0.00000E+00  9.000E+00
     -11     1     3     3     0     0 -8.440856757E-02  3.205464276E-01 -2.288679669E+02  2.288682070E+02  5.110000000E-04  0.00000E+00  9.000E+00
       2     1     1     2   502     0 -4.605717521E-01  5.914932154E-02 -6.213771207E+01  6.213944710E+01  0.000000000E+00  0.00000E+00  9.000E+00
#rwgt            1          17  -20612895.800590344                3     6597853           0
<weights>
-.11144E+08
-.11712E+08
-.10474E+08
-.14235E+08
-.83920E+07
-.91692E+07
-.13908E+08
-.11127E+08
-.11160E+08
-.11166E+08
-.11154E+08
-.11011E+08
-.11297E+08
-.11158E+08
-.11155E+08
-.11318E+08
-.10883E+08
-.11416E+08
-.10743E+08
-.10689E+08
-.11447E+08
-.11105E+08
-.11165E+08
-.11079E+08
-.11165E+08
-.11281E+08
-.11055E+08
-.10816E+08
-.11486E+08
-.11075E+08
-.11176E+08
-.11020E+08
-.11264E+08
-.11439E+08
-.10776E+08
-.11108E+08
-.11175E+08
-.11155E+08
-.11137E+08
-.11230E+08
-.11066E+08
-.11139E+08
-.11148E+08
-.11127E+08
-.11160E+08
</weights>
</event>
<event>
      6  10001  1.11453E+07  8.94427E-01 -1.00000E+00  6.02623E-01
       1    -1     0     0   501     0  0.000000000E+00  0.000000000E+00  2.923071813E-02  2.923071813E-02  0.000000000E+00  0.00000E+00  9.000E+00
      21    -1     0     0   502   501  0.000000000E+00  0.000000000E+00 -3.621808482E+01  3.621808482E+01  0.000000000E+00  0.00000E+00  9.000E+00
      23     2     1     2     0     0 -6.735266908E-01 -1.117360809E-01 -2.011826653E+01  2.016223213E+01  1.142293031E+00  0.00000E+00  9.000E+00
      11     1     3     3     0     0 -9.202160048E-01 -6.556934243E-02 -1.043154540E+01  1.047226034E+01  5.110000000E-04  0.00000E+00  9.000E+00
     -11     1     3     3     0     0  2.466893139E-01 -4.616673848E-02 -9.686721125E+00  9.689971795E+00  5.110000000E-04  0.00000E+00  9.000E+00
       1     1     1     2   502     0  6.735266908E-01  1.117360809E-01 -1.607058757E+01  1.608508341E+01  0.000000000E+00  0.00000E+00  9.000E+00
#rwgt            1          22   169417.91839011933                3     6598532           0
<weights>
0.11145E+08
0.13002E+08
0.92450E+07
0.12037E+08
0.98351E+07
0.11699E+08
0.10027E+08
0.11331E+08
0.10959E+08
0.10555E+08
0.10692E+08
0.10822E+08
0.10952E+08
0.10638E+08
0.10678E+08
0.11260E+08
0.11218E+08
0.11586E+08
0.11681E+08
0.11674E+08
0.11554E+08
0.11610E+08
0.11756E+08
0.11274E+08
0.11664E+08
0.11544E+08
0.10969E+08
0.11546E+08
0.11357E+08
0.11512E+08
0.11644E+08
0.11102E+08
0.11339E+08
0.11181E+08
0.11127E+08
0.11421E+08
0.10904E+08
0.10636E+08
0.11513E+08
0.11138E+08
0.11152E+08
0.11178E+08
0.11111E+08
0.11695E+08
0.10627E+08
</weights>
</event>
<event>
      6  10001 -1.11453E+07  8.94427E-01 -1.00000E+00  5.63081E-01
       2    -1     0     0   501     0  0.000000000E+00  0.000000000E+00  6.349571644E+01  6.349571644E+01  0.000000000E+00  0.00000E+00  9.000E+00
      21    -1     0     0   502   501  0.000000000E+00  0.000000000E+00 -1.974695650E-02  1.974695650E-02  0.000000000E+00  0.00000E+00  9.000E+00
      23     2     1     2     0     0 -2.871415510E-01 -3.961572144E-01  4.000084732E+01  4.003524296E+01  1.585402892E+00  0.00000E+00  9.000E+00
      11     1     3     3     0     0  3.931359761E-01 -7.743021514E-01  2.352523176E+01  2.354125377E+01  5.110000000E-04  0.00000E+00  9.000E+00
     -11     1     3     3     0     0 -6.802775271E-01  3.781449370E-01  1.647561556E+01  1.649398919E+01  5.110000000E-04  0.00000E+00  9.000E+00
       2     1     1     2   502     0  2.871415510E-01  3.961572144E-01  2.347512217E+01  2.348022044E+01  0.000000000E+00  0.00000E+00  9.000E+00
#rwgt            1          24  -4938290.7897932995                3     6603333           0
<weights>
-.11145E+08
-.12515E+08
-.96048E+07
-.15218E+08
-.76962E+07
-.91654E+07
-.13909E+08
-.11173E+08
-.11119E+08
-.10826E+08
-.10817E+08
-.10963E+08
-.11008E+08
-.10844E+08
-.10827E+08
-.11226E+08
-.11209E+08
-.11459E+08
-.11500E+08
-.11488E+08
-.11436E+08
-.11497E+08
-.11517E+08
-.11406E+08
-.11328E+08
-.11286E+08
-.11344E+08
-.11431E+08
-.11369E+08
-.11475E+08
-.11510E+08
-.11183E+08
-.11217E+08
-.11138E+08
-.11177E+08
-.11209E+08
-.11100E+08
-.11128E+08
-.11088E+08
-.11165E+08
-.11128E+08
-.11185E+08
-.11104E+08
-.11502E+08
-.10817E+08
</weights>
</event>
<event>
      6  10001 -1.11453E+07  8.94427E-01 -1.00000E+00  6.01740E-01
      -4    -1     0     0     0   502  0.000000000E+00  0.000000000E+00  5.864437534E+00  5.864437534E+00  0.000000000E+00  0.00000E+00  9.000E+00
       4    -1     0     0   501     0  0.000000000E+00  0.000000000E+00 -1.501608873E-01  1.501608873E-01  0.000000000E+00  0.00000E+00  9.000E+00
      23     2     1     2     0     0 -4.542037464E-01  3.283958967E-02  3.053818999E+00  3.315447744E+00  1.207892290E+00  0.00000E+00  9.000E+00
      11     1     3     3     0     0 -3.736131754E-01  8.298172806E-02  3.154178430E+00  3.177312481E+00  5.110000000E-04  0.00000E+00  9.000E+00
     -11     1     3     3     0     0 -8.059057101E-02 -5.014213839E-02 -1.003594316E-01  1.381352627E-01  5.110000000E-04  0.00000E+00  9.000E+00
      21     1     1     2   501   502  4.542037464E-01 -3.283958967E-02  2.660457648E+00  2.699150677E+00  2.980232239E-08  0.00000E+00  9.000E+00
#rwgt            1           4  -291497.52683738188                3     6605568           0
<weights>
-.11145E+08
-.10940E+08
-.10523E+08
-.19777E+08
-.51024E+07
-.52408E+07
-.19942E+08
-.11206E+08
-.11082E+08
-.10916E+08
-.10952E+08
-.10999E+08
-.11081E+08
-.10951E+08
-.10956E+08
-.11211E+08
-.11139E+08
-.11328E+08
-.11342E+08
-.11337E+08
-.11314E+08
-.11338E+08
-.11377E+08
-.11227E+08
-.11310E+08
-.11243E+08
-.11129E+08
-.11290E+08
-.11254E+08
-.11301E+08
-.11351E+08
-.11139E+08
-.11212E+08
-.11150E+08
-.11150E+08
-.11238E+08
-.11065E+08
-.10965E+08
-.11255E+08
-.11123E+08
-.11165E+08
-.11164E+08
-.11126E+08
-.11366E+08
-.10936E+08
</weights>
</event>
<event>
      7  10001  1.11453E+07  1.04951E+00 -1.00000E+00  5.44230E-01
      21    -1     0     0   502   501  0.000000000E+00  0.000000000E+00  3.787684080E-02  3.787684080E-02  0.000000000E+00  0.00000E+00  9.000E+00
       2    -1     0     0   501     0  0.000000000E+00  0.000000000E+00 -4.296008285E+01  4.296008285E+01  0.000000000E+00  0.00000E+00  9.000E+00
      23     2     1     2     0     0  1.690101136E-01 -4.070547902E-02 -3.790679016E+01  3.795086580E+01  1.820234392E+00  0.00000E+00  9.000E+00
      11     1     3     3     0     0  1.336919023E-01  2.736807513E-01 -3.675933924E+01  3.676060114E+01  5.110000000E-04  0.00000E+00  9.000E+00
     -11     1     3     3     0     0  3.531821126E-02 -3.143862303E-01 -1.147450925E+00  1.190264662E+00  5.110000000E-04  0.00000E+00  9.000E+00
       2     1     1     2   511     0 -3.268320393E-03 -8.060136442E-02 -4.348925703E+00  4.349673785E+00  0.000000000E+00  0.00000E+00  9.000E+00
      21     1     1     2   502   511 -1.657417932E-01  1.213068434E-01 -6.664901476E-01  6.974201095E-01  2.980232239E-08  0.00000E+00  9.000E+00
#rwgt            2         189   443130.99364574568                3     6612410           0
<weights>
0.11145E+08
0.11627E+08
0.10419E+08
0.14132E+08
0.83480E+07
0.91702E+07
0.13910E+08
0.11191E+08
0.11100E+08
0.11057E+08
0.11100E+08
0.11142E+08
0.11052E+08
0.11091E+08
0.11099E+08
0.11096E+08
0.11211E+08
0.11088E+08
0.11321E+08
0.11332E+08
0.11078E+08
0.11191E+08
0.11189E+08
0.11236E+08
0.11123E+08
0.11132E+08
0.11148E+08
0.11326E+08
0.10937E+08
0.11187E+08
0.11168E+08
0.11144E+08
0.11159E+08
0.11068E+08
0.11253E+08
0.11119E+08
0.11172E+08
0.11016E+08
0.11275E+08
0.11079E+08
0.11199E+08
0.11208E+08
0.11078E+08
0.11204E+08
0.11084E+08
</weights>
</event>
<event>
      7  10001  1.11453E+07  1.29170E+00 -1.00000E+00  4.72636E-01
      21    -1     0     0   502   501  0.000000000E+00  0.000000000E+00  9.870912066E+00  9.870912066E+00  0.000000000E+00  0.00000E+00  9.000E+00
       2    -1     0     0   501     0  0.000000000E+00  0.000000000E+00 -2.446704316E-01  2.446704316E-01  0.000000000E+00  0.00000E+00  9.000E+00
      23     2     1     2     0     0 -6.580421555E-01 -4.008565782E-01  2.215784300E+00  2.581533585E+00  1.077455387E+00  0.00000E+00  9.000E+00
      11     1     3     3     0     0 -9.081742297E-01 -3.426186869E-01  1.252435805E+00  1.584538956E+00  5.110000000E-04  0.00000E+00  9.000E+00
     -11     1     3     3     0     0  2.501320742E-01 -5.823789135E-02  9.633484952E-01  9.969946293E-01  5.110000000E-04  0.00000E+00  9.000E+00
       2     1     1     2   512     0  5.376179144E-01  3.912874147E-01  1.746396663E+00  1.868700128E+00  0.000000000E+00  0.00000E+00  9.000E+00
      21     1     1     2   502   512  1.204242411E-01  9.569163538E-03  5.664060671E+00  5.665348785E+00  0.000000000E+00  0.00000E+00  9.000E+00
#rwgt            2         189   5774406.1014136951                3     6614219           0
<weights>
0.11145E+08
0.11574E+08
0.10459E+08
0.14067E+08
0.83802E+07
0.91702E+07
0.13910E+08
0.11066E+08
0.11248E+08
0.10827E+08
0.10805E+08
0.10972E+08
0.10987E+08
0.10840E+08
0.10817E+08
0.11201E+08
0.11253E+08
0.11476E+08
0.11490E+08
0.11478E+08
0.11454E+08
0.11512E+08
0.11519E+08
0.11413E+08
0.11314E+08
0.11321E+08
0.11213E+08
0.11465E+08
0.11341E+08
0.11495E+08
0.11515E+08
0.11171E+08
0.11232E+08
0.11136E+08
0.11183E+08
0.11119E+08
0.11200E+08
0.11149E+08
0.11070E+08
0.11166E+08
0.11126E+08
0.11200E+08
0.11088E+08
0.11509E+08
0.10812E+08
</weights>
</event>
<event>
      6  10001  1.11453E+07  8.94427E-01 -1.00000E+00  6.06648E-01
       2    -1     0     0   501     0  0.000000000E+00  0.000000000E+00  3.047111519E+02  3.047111519E+02  0.000000000E+00  0.00000E+00  9.000E+00
      -2    -1     0     0     0   502  0.000000000E+00  0.000000000E+00 -3.114870284E-02  3.114870284E-02  0.000000000E+00  0.00000E+00  9.000E+00
      23     2     1     2     0     0  1.539367146E+00  5.126204736E-02  4.670855798E+01  4.676625748E+01  1.738151578E+00  0.00000E+00  9.000E+00
      11     1     3     3     0     0  1.159166817E+00 -7.675606460E-01  3.181681038E+01  3.184717004E+01  5.110000000E-04  0.00000E+00  9.000E+00
     -11     1     3     3     0     0  3.802003285E-01  8.188226934E-01  1.489174761E+01  1.491908744E+01  5.110000000E-04  0.00000E+00  9.000E+00
      21     1     1     2   501   502 -1.539367146E+00 -5.126204736E-02  2.579714453E+02  2.579760432E+02  0.000000000E+00  0.00000E+00  9.000E+00
#rwgt            1          23   1111500.0742976924                3     6615268           0
<weights>
0.11145E+08
0.11881E+08
0.10355E+08
0.12407E+08
0.96471E+07
0.10553E+08
0.11788E+08
0.10980E+08
0.11389E+08
0.10802E+08
0.10762E+08
0.10966E+08
0.10960E+08
0.10809E+08
0.10776E+08
0.11201E+08
0.11280E+08
0.11513E+08
0.11551E+08
0.11530E+08
0.11490E+08
0.11562E+08
0.11560E+08
0.11525E+08
0.11286E+08
0.11318E+08
0.11432E+08
0.11501E+08
0.11387E+08
0.11550E+08
0.11563E+08
0.11179E+08
0.11240E+08
0.11134E+08
0.11190E+08
0.11079E+08
0.11251E+08
0.11204E+08
0.11017E+08
0.11179E+08
0.11115E+08
0.11209E+08
0.11078E+08
0.11550E+08
0.10776E+08
</weights>
</event>
<event>
      6  10001  1.11453E+07  8.94427E-01 -1.00000E+00  6.02123E-01
       2    -1     0     0   501     0  0.000000000E+00  0.000000000E+00  5.168992559E-02  5.168992559E-02  0.000000000E+00  0.00000E+00  9.000E+00
      -2    -1     0     0     0   502  0.000000000E+00  0.000000000E+00 -1.820693223E+01  1.820693223E+01  0.000000000E+00  0.00000E+00  9.000E+00
      23     2     1     2     0     0  4.777425282E-01 -1.689967855E-01 -1.601303195E+01  1.605729005E+01  1.078227099E+00  0.00000E+00  9.000E+00
      11     1     3     3     0     0 -1.809598488E-01  2.169813802E-01 -8.685239971E+00  8.689834348E+00  5.110000000E-04  0.00000E+00  9.000E+00
     -11     1     3     3     0     0  6.587023771E-01 -3.859781656E-01 -7.327791984E+00  7.367455707E+00  5.110000000E-04  0.00000E+00  9.000E+00
      21     1     1     2   501   502 -4.777425282E-01  1.689967855E-01 -2.142210351E+00  2.201332102E+00  2.980232239E-08  0.00000E+00  9.000E+00
#rwgt            1          23   363863.09192917298                3     6618253           0
<weights>
0.11145E+08
0.12965E+08
0.94160E+07
0.12405E+08
0.95193E+07
0.11324E+08
0.10603E+08
0.11198E+08
0.11087E+08
0.10826E+08
0.10859E+08
0.10987E+08
0.10962E+08
0.10856E+08
0.10861E+08
0.11107E+08
0.11343E+08
0.11448E+08
0.11424E+08
0.11399E+08
0.11442E+08
0.11438E+08
0.11501E+08
0.11323E+08
0.11354E+08
0.11447E+08
0.10995E+08
0.11438E+08
0.11184E+08
0.11403E+08
0.11443E+08
0.11087E+08
0.11295E+08
0.11226E+08
0.11084E+08
0.10960E+08
0.11343E+08
0.10948E+08
0.11236E+08
0.11149E+08
0.11133E+08
0.11265E+08
0.11017E+08
0.11465E+08
0.10848E+08
</weights>
</event>
<event>
      6  10001 -1.11453E+07  8.94427E-01 -1.00000E+00  2.75206E-01
      21    -1     0     0   502   501  0.000000000E+00  0.000000000E+00  2.224098118E-02  2.224098118E-02  0.000000000E+00  0.00000E+00  9.000E+00
       2    -1     0     0   501     0  0.000000000E+00  0.000000000E+00 -2.018601945E+02  2.018601945E+02  0.000000000E+00  0.00000E+00  9.000E+00
      23     2     1     2     0     0 -9.208321359E-02  5.657885026E-01 -1.975001631E+02  1.975069330E+02  1.531527343E+00  0.00000E+00  9.000E+00
      11     1     3     3     0     0  7.726114236E-02  8.598998524E-01 -1.854032177E+02  1.854052279E+02  5.110000000E-04  0.00000E+00  9.000E+00
     -11     1     3     3     0     0 -1.693443560E-01 -2.941113497E-01 -1.209694538E+01  1.210170512E+01  5.110000000E-04  0.00000E+00  9.000E+00
       2     1     1     2   502     0  9.208321359E-02 -5.657885026E-01 -4.337790417E+00  4.375502446E+00  0.000000000E+00  0.00000E+00  9.000E+00
#rwgt            1          17  -52568330.454696193                3     6619217           0
<weights>
-.11145E+08
-.12850E+08
-.90393E+07
-.15618E+08
-.72428E+07
-.91702E+07
-.13910E+08
-.11130E+08
-.11160E+08
-.11173E+08
-.11169E+08
-.11101E+08
-.11203E+08
-.11171E+08
-.11170E+08
-.11302E+08
-.10895E+08
-.11231E+08
-.10957E+08
-.10938E+08
-.11241E+08
-.11103E+08
-.11137E+08
-.11179E+08
-.11056E+08
-.11129E+08
-.11143E+08
-.11033E+08
-.11200E+08
-.11103E+08
-.11136E+08
-.11064E+08
-.11217E+08
-.11229E+08
-.11030E+08
-.11138E+08
-.11148E+08
-.11171E+08
-.11120E+08
-.11160E+08
-.11129E+08
-.11166E+08
-.11122E+08
-.11116E+08
-.11172E+08
</weights>
</event>
<event>
      7  10001  1.11453E+07  8.94427E-01 -1.00000E+00  6.07649E-01
      21    -1     0     0   502   501  0.000000000E+00  0.000000000E+00  6.737966049E-02  6.737966049E-02  0.000000000E+00  0.00000E+00  9.000E+00
      -4    -1     0     0     0   502  0.000000000E+00  0.000000000E+00 -2.136654905E+01  2.136654905E+01  0.000000000E+00  0.00000E+00  9.000E+00
      23     2     1     2     0     0  2.442794290E-01 -9.734431869E-02 -1.887589394E+01  1.897138966E+01  1.882845022E+00  0.00000E+00  9.000E+00
      11     1     3     3     0     0  2.134863495E-01  3.518611415E-01 -8.975709439E-01  9.874292607E-01  5.110000000E-04  0.00000E+00  9.000E+00
     -11     1     3     3     0     0  3.079307949E-02 -4.492054602E-01 -1.797832300E+01  1.798396040E+01  5.110000000E-04  0.00000E+00  9.000E+00
      -4     1     1     2     0   511 -8.762737969E-02  9.309802577E-02 -2.093738671E+00  2.097638535E+00  0.000000000E+00  0.00000E+00  9.000E+00
      21     1     1     2   511   501 -1.566520493E-01  4.246292928E-03 -3.295367804E-01  3.649005141E-01  0.000000000E+00  0.00000E+00  9.000E+00
#rwgt            2         154   19660236.037270460                3     6623837           0
<weights>
0.11145E+08
0.11996E+08
0.99848E+07
0.14580E+08
0.80004E+07
0.91702E+07
0.13910E+08
0.11243E+08
0.11047E+08
0.10847E+08
0.10916E+08
0.10946E+08
0.11091E+08
0.10900E+08
0.10917E+08
0.11202E+08
0.11169E+08
0.11361E+08
0.11391E+08
0.11386E+08
0.11348E+08
0.11370E+08
0.11431E+08
0.11208E+08
0.11393E+08
0.11356E+08
0.11041E+08
0.11348E+08
0.11227E+08
0.11315E+08
0.11385E+08
0.11117E+08
0.11246E+08
0.11160E+08
0.11139E+08
0.11311E+08
0.10998E+08
0.10847E+08
0.11380E+08
0.11111E+08
0.11178E+08
0.11144E+08
0.11147E+08
0.11417E+08
0.10885E+08
</weights>
</event>
<event>
      6  10001  1.11453E+07  8.94427E-01 -1.00000E+00  5.91471E-01
      21    -1     0     0   502   501  0.000000000E+00  0.000000000E+00  9.285919568E+00  9.285919568E+00  0.000000000E+00  0.00000E+00  9.000E+00
       2    -1     0     0   501     0  0.000000000E+00  0.000000000E+00 -2.296114327E-01  2.296114327E-01  0.000000000E+00  0.00000E+00  9.000E+00
      23     2     1     2     0     0 -1.872058522E-01  4.263028621E-01  8.854058756E+00  9.007904196E+00  1.590974982E+00  0.00000E+00  9.000E+00
      11     1     3     3     0     0  2.247360224E-01  1.886849724E-02  1.215534421E-01  2.561987516E-01  5.110000000E-04  0.00000E+00  9.000E+00
     -11     1     3     3     0     0 -4.119418746E-01  4.074343649E-01  8.732505313E+00  8.751705444E+00  5.110000000E-04  0.00000E+00  9.000E+00
       2     1     1     2   502     0  1.872058522E-01 -4.263028621E-01  2.022493794E-01  5.076268047E-01  0.000000000E+00  0.00000E+00  9.000E+00
#rwgt            1          17   114651.01147925378                3     6624601           0
<weights>
0.11145E+08
0.14855E+08
0.77847E+07
0.11922E+08
0.99078E+07
0.13155E+08
0.77933E+07
0.10544E+08
0.11892E+08
0.10769E+08
0.10661E+08
0.10991E+08
0.10845E+08
0.10754E+08
0.10684E+08
0.11108E+08
0.11480E+08
0.11622E+08
0.11602E+08
0.11569E+08
0.11603E+08
0.11683E+08
0.11626E+08
0.11681E+08
0.11216E+08
0.11442E+08
0.11249E+08
0.11674E+08
0.11344E+08
0.11698E+08
0.11649E+08
0.11152E+08
0.11302E+08
0.11127E+08
0.11219E+08
0.10703E+08
0.11665E+08
0.11351E+08
0.10879E+08
0.11200E+08
0.11092E+08
0.11281E+08
0.11001E+08
0.11631E+08
0.10708E+08
</weights>
</event>
<event>
      6  10001 -1.11453E+07  8.94427E-01 -1.00000E+00  3.38252E-01
      21    -1     0     0   502   501  0.000000000E+00  0.000000000E+00  2.410637095E-02  2.410637095E-02  0.000000000E+00  0.00000E+00  9.000E+00
       2    -1     0     0   501     0  0.000000000E+00  0.000000000E+00 -8.138472534E+01  8.138472534E+01  0.000000000E+00  0.00000E+00  9.000E+00
      23     2     1     2     0     0 -3.040268840E-01 -2.397275537E-01 -1.325275131E+01  1.329986358E+01  1.049310507E+00  0.00000E+00  9.000E+00
      11     1     3     3     0     0 -4.149071954E-01 -4.405304545E-01 -1.245754029E+01  1.247223017E+01  5.110000000E-04  0.00000E+00  9.000E+00
     -11     1     3     3     0     0  1.108803113E-01  2.008029008E-01 -7.952110143E-01  8.276334133E-01  5.110000000E-04  0.00000E+00  9.000E+00
       2     1     1     2   502     0  3.040268840E-01  2.397275537E-01 -6.810786767E+01  6.810896813E+01  0.000000000E+00  0.00000E+00  9.000E+00
#rwgt            1          17  -1613994.4500573035                3     6639244           0
<weights>
-.11145E+08
-.12787E+08
-.93803E+07
-.15541E+08
-.75160E+07
-.91702E+07
-.13910E+08
-.11163E+08
-.11127E+08
-.11132E+08
-.11156E+08
-.11163E+08
-.11097E+08
-.11153E+08
-.11156E+08
-.11154E+08
-.11097E+08
-.11071E+08
-.11202E+08
-.11211E+08
-.11065E+08
-.11131E+08
-.11124E+08
-.11235E+08
-.11035E+08
-.11070E+08
-.11178E+08
-.11243E+08
-.10954E+08
-.11139E+08
-.11118E+08
-.11133E+08
-.11151E+08
-.11079E+08
-.11228E+08
-.11130E+08
-.11155E+08
-.11099E+08
-.11202E+08
-.11091E+08
-.11188E+08
-.11199E+08
-.11088E+08
-.11138E+08
-.11148E+08
</weights>
</event>
<event>
      6  10001 -1.11453E+07  8.94427E-01 -1.00000E+00  4.65639E-01
      -2    -1     0     0     0   502  0.000000000E+00  0.000000000E+00  1.046413020E-02  1.046413020E-02  0.000000000E+00  0.00000E+00  9.000E+00
      21    -1     0     0   502   501  0.000000000E+00  0.000000000E+00 -9.852846752E+01  9.852846752E+01  0.000000000E+00  0.00000E+00  9.000E+00
      23     2     1     2     0     0 -1.238431903E-01 -6.630325846E-01 -7.667653046E+01  7.668704640E+01  1.076016952E+00  0.00000E+00  9.000E+00
      11     1     3     3     0     0 -5.532929314E-01 -5.600796492E-01 -3.913260254E+01  3.914052125E+01  5.110000000E-04  0.00000E+00  9.000E+00
     -11     1     3     3     0     0  4.294497411E-01 -1.029529353E-01 -3.754392792E+01  3.754652515E+01  5.110000000E-04  0.00000E+00  9.000E+00
      -2     1     1     2     0   501  1.238431903E-01  6.630325846E-01 -2.184147293E+01  2.185188526E+01  0.000000000E+00  0.00000E+00  9.000E+00
#rwgt            1           7  -186055.04009979786                3     6643024           0
<weights>
-.11145E+08
-.12301E+08
-.97314E+07
-.14950E+08
-.77973E+07
-.91702E+07
-.13910E+08
-.11164E+08
-.11126E+08
-.11160E+08
-.11195E+08
-.11073E+08
-.11261E+08
-.11214E+08
-.11210E+08
-.11152E+08
-.11060E+08
-.11081E+08
-.11019E+08
-.11014E+08
-.11091E+08
-.11064E+08
-.11025E+08
-.11098E+08
-.11089E+08
-.11114E+08
-.11129E+08
-.11073E+08
-.11057E+08
-.11038E+08
-.11057E+08
-.11104E+08
-.11162E+08
-.11148E+08
-.11135E+08
-.11213E+08
-.11080E+08
-.10956E+08
-.11396E+08
-.11050E+08
-.11234E+08
-.11107E+08
-.11187E+08
-.11085E+08
-.11186E+08
</weights>
</event>
<event>
      7  10001  1.11453E+07  1.26685E+00 -1.00000E+00  4.78869E-01
      -2    -1     0     0     0   502  0.000000000E+00  0.000000000E+00  2.237260354E+00  2.237260354E+00  0.000000000E+00  0.00000E+00  9.000E+00
       2    -1     0     0   511     0  0.000000000E+00  0.000000000E+00 -1.890356038E+01  1.890356038E+01  0.000000000E+00  0.00000E+00  9.000E+00
      23     2     1     2     0     0 -2.478010960E+00 -2.869261352E+00 -2.101157019E+00  5.466597397E+00  3.331009945E+00  0.00000E+00  9.000E+00
      11     1     3     3     0     0 -3.108515590E+00 -3.083218286E+00 -1.763663761E+00  4.720128631E+00  5.110000000E-04  0.00000E+00  9.000E+00
     -11     1     3     3     0     0  6.305046296E-01  2.139569341E-01 -3.374932584E-01  7.464687657E-01  5.110000000E-04  0.00000E+00  9.000E+00
      21     1     1     2   501   502  3.711460714E+00  2.580289624E+00 -1.161408780E+01  1.246273929E+01  1.685873940E-07  0.00000E+00  9.000E+00
      21     1     1     2   511   501 -1.233449754E+00  2.889717284E-01 -2.951055211E+00  3.211484052E+00  4.214684851E-08  0.00000E+00  9.000E+00
#rwgt            1           8   261939.41784217965                3     6644438           0
<weights>
0.11145E+08
0.11451E+08
0.10866E+08
0.11664E+08
0.10250E+08
0.10724E+08
0.11524E+08
0.11181E+08
0.11106E+08
0.10919E+08
0.10946E+08
0.11069E+08
0.10983E+08
0.10944E+08
0.10949E+08
0.11080E+08
0.11338E+08
0.11252E+08
0.11480E+08
0.11484E+08
0.11236E+08
0.11357E+08
0.11377E+08
0.11279E+08
0.11289E+08
0.11292E+08
0.11075E+08
0.11458E+08
0.11052E+08
0.11342E+08
0.11337E+08
0.11151E+08
0.11204E+08
0.11091E+08
0.11241E+08
0.11068E+08
0.11235E+08
0.11000E+08
0.11218E+08
0.11108E+08
0.11174E+08
0.11223E+08
0.11063E+08
0.11369E+08
0.10936E+08
</weights>
</event>
<event>
      7  10001  1.11453E+07  1.49062E+00 -1.00000E+00  4.29352E-01
      21    -1     0     0   502   501  0.000000000E+00  0.000000000E+00  7.696747922E-01  7.696747922E-01  0.000000000E+00  0.00000E+00  9.000E+00
       4    -1     0     0   501     0  0.000000000E+00  0.000000000E+00 -3.235078550E+00  3.235078550E+00  0.000000000E+00  0.00000E+00  9.000E+00
      23     2     1     2     0     0 -2.509195399E-01  4.469039071E-01 -2.779231421E+00  3.115198669E+00  1.310592133E+00  0.00000E+00  9.000E+00
      11     1     3     3     0     0  1.966032047E-01  1.738050671E-01  2.386359182E-02  2.634971605E-01  5.110000000E-04  0.00000E+00  9.000E+00
     -11     1     3     3     0     0 -4.475227446E-01  2.730988400E-01 -2.803095013E+00  2.851701509E+00  5.110000000E-04  0.00000E+00  9.000E+00
       4     1     1     2   511     0 -9.555791305E-02 -1.999316140E-01 -1.442063530E-01  2.643850171E-01  0.000000000E+00  0.00000E+00  9.000E+00
      21     1     1     2   502   511  3.464774529E-01 -2.469722931E-01  4.580340159E-01  6.251696559E-01  3.414284956E-08  0.00000E+00  9.000E+00
#rwgt            2         195   3500544.6870334209                3     6646844           0
<weights>
0.11145E+08
0.11936E+08
0.10041E+08
0.14506E+08
0.80455E+07
0.91702E+07
0.13910E+08
0.11212E+08
0.11075E+08
0.10819E+08
0.10821E+08
0.10947E+08
0.11029E+08
0.10841E+08
0.10831E+08
0.11227E+08
0.11210E+08
0.11466E+08
0.11471E+08
0.11469E+08
0.11440E+08
0.11490E+08
0.11519E+08
0.11313E+08
0.11387E+08
0.11358E+08
0.11076E+08
0.11446E+08
0.11331E+08
0.11461E+08
0.11502E+08
0.11177E+08
0.11220E+08
0.11134E+08
0.11179E+08
0.11260E+08
0.11047E+08
0.11077E+08
0.11118E+08
0.11160E+08
0.11134E+08
0.11170E+08
0.11120E+08
0.11501E+08
0.10817E+08
</weights>
</event>
<event>
      7  10001  1.11453E+07  8.94427E-01 -1.00000E+00  6.07649E-01
      -1    -1     0     0     0   502  0.000000000E+00  0.000000000E+00  7.357326993E+01  7.357326993E+01  0.000000000E+00  0.00000E+00  9.000E+00
       4    -1     0     0   502     0  0.000000000E+00  0.000000000E+00 -9.923321508E-02  9.923321508E-02  0.000000000E+00  0.00000E+00  9.000E+00
      23     2     1     2     0     0 -3.242579763E-01 -3.236470597E-01  2.154925178E+01  2.173908578E+01  2.829789376E+00  0.00000E+00  9.000E+00
      11     1     3     3     0     0  7.750225470E-01 -1.105882876E+00  1.443502926E+01  1.449805873E+01  5.110000000E-04  0.00000E+00  9.000E+00
     -11     1     3     3     0     0 -1.099280523E+00  7.822358159E-01  7.114222518E+00  7.241027056E+00  5.110000000E-04  0.00000E+00  9.000E+00
      -1     1     1     2     0   501  1.932341419E-01  2.711490811E-01  5.060687554E+01  5.060797084E+01  0.000000000E+00  0.00000E+00  9.000E+00
       4     1     1     2   501     0  1.310238344E-01  5.249797862E-02  1.317909402E+00  1.325446519E+00  0.000000000E+00  0.00000E+00  9.000E+00
#rwgt            2         148   35662.074772905580                3     6648311           0
<weights>
0.11145E+08
0.11321E+08
0.10758E+08
0.13759E+08
0.86195E+07
0.91702E+07
0.13910E+08
0.11177E+08
0.11112E+08
0.10802E+08
0.10782E+08
0.10951E+08
0.10993E+08
0.10816E+08
0.10794E+08
0.11232E+08
0.11224E+08
0.11496E+08
0.11529E+08
0.11519E+08
0.11469E+08
0.11538E+08
0.11553E+08
0.11425E+08
0.11345E+08
0.11307E+08
0.11298E+08
0.11470E+08
0.11393E+08
0.11519E+08
0.11550E+08
0.11195E+08
0.11217E+08
0.11134E+08
0.11185E+08
0.11213E+08
0.11098E+08
0.11168E+08
0.11047E+08
0.11176E+08
0.11119E+08
0.11188E+08
0.11101E+08
0.11537E+08
0.10786E+08
</weights>
</event>
<event>
      6  10001 -1.11453E+07  8.94427E-01 -1.00000E+00  5.47427E-01
      21    -1     0     0   502   501  0.000000000E+00  0.000000000E+00  1.905222351E-02  1.905222351E-02  0.000000000E+00  0.00000E+00  9.000E+00
       2    -1     0     0   501     0  0.000000000E+00  0.000000000E+00 -4.873258211E+01  4.873258211E+01  0.000000000E+00  0.00000E+00  9.000E+00
      23     2     1     2     0     0 -1.422492419E-01  3.063082539E-01 -4.630053467E+01  4.631511930E+01  1.112072599E+00  0.00000E+00  9.000E+00
      11     1     3     3     0     0 -3.336548773E-01 -3.406086078E-01 -1.614482987E+01  1.615186898E+01  5.110000000E-04  0.00000E+00  9.000E+00
     -11     1     3     3     0     0  1.914056354E-01  6.469168617E-01 -3.015570480E+01  3.016325032E+01  5.110000000E-04  0.00000E+00  9.000E+00
       2     1     1     2   502     0  1.422492419E-01 -3.063082539E-01 -2.412995219E+00  2.436515036E+00  0.000000000E+00  0.00000E+00  9.000E+00
#rwgt            1          17  -9986836.3821710553                3     6648828           0
<weights>
-.11145E+08
-.12599E+08
-.95695E+07
-.15313E+08
-.76676E+07
-.91702E+07
-.13910E+08
-.11187E+08
-.11104E+08
-.11073E+08
-.11114E+08
-.11149E+08
-.11059E+08
-.11106E+08
-.11113E+08
-.11103E+08
-.11192E+08
-.11078E+08
-.11300E+08
-.11311E+08
-.11068E+08
-.11177E+08
-.11172E+08
-.11236E+08
-.11103E+08
-.11116E+08
-.11155E+08
-.11312E+08
-.10933E+08
-.11175E+08
-.11154E+08
-.11143E+08
-.11155E+08
-.11067E+08
-.11253E+08
-.11121E+08
-.11168E+08
-.11030E+08
-.11267E+08
-.11079E+08
-.11199E+08
-.11207E+08
-.11079E+08
-.11188E+08
-.11099E+08
</weights>
</event>
<event>
      6  10001  1.11453E+07  8.94427E-01 -1.00000E+00  6.02564E-01
      21    -1     0     0   502   501  0.000000000E+00  0.000000000E+00  8.143466514E-01  8.143466514E-01  0.000000000E+00  0.00000E+00  9.000E+00
      -3    -1     0     0     0   502  0.000000000E+00  0.000000000E+00 -1.603515262E+00  1.603515262E+00  0.000000000E+00  0.00000E+00  9.000E+00
      23     2     1     2     0     0  3.146648112E-02 -5.686862913E-01 -1.219593332E+00  1.703957383E+00  1.044829474E+00  0.00000E+00  9.000E+00
      11     1     3     3     0     0 -3.105778300E-01  1.827152164E-01 -4.368850921E-01  5.663146507E-01  5.110000000E-04  0.00000E+00  9.000E+00
     -11     1     3     3     0     0  3.420443111E-01 -7.514015076E-01 -7.827082397E-01  1.137642732E+00  5.110000000E-04  0.00000E+00  9.000E+00
      -3     1     1     2     0   501 -3.146648112E-02  5.686862913E-01  4.304247215E-01  7.139045302E-01  0.000000000E+00  0.00000E+00  9.000E+00
#rwgt            1          13   68304.516806303232                3     6649568           0
<weights>
0.11145E+08
0.17082E+08
0.90701E+07
-.99398E+06
0.19311E+08
0.22822E+08
-.70471E+07
0.11140E+08
0.11139E+08
0.10522E+08
0.10452E+08
0.11130E+08
0.10468E+08
0.10502E+08
0.10454E+08
0.11329E+08
0.11011E+08
0.10899E+08
0.13859E+08
0.13477E+08
0.10958E+08
0.11883E+08
0.12094E+08
0.15255E+08
0.95585E+07
0.83881E+07
0.23303E+08
0.10887E+08
0.13186E+08
0.11897E+08
0.12090E+08
0.11467E+08
0.11078E+08
0.11155E+08
0.11211E+08
0.11213E+08
0.11104E+08
0.11668E+08
0.10485E+08
0.11337E+08
0.10970E+08
0.11329E+08
0.10950E+08
0.11914E+08
0.10459E+08
</weights>
</event>
<event>
      6  10001 -1.11453E+07  8.94427E-01 -1.00000E+00  4.15616E-01
      -1    -1     0     0     0   502  0.000000000E+00  0.000000000E+00  1.472093383E+02  1.472093383E+02  0.000000000E+00  0.00000E+00  9.000E+00
      21    -1     0     0   502   501  0.000000000E+00  0.000000000E+00 -1.058536898E-02  1.058536898E-02  0.000000000E+00  0.00000E+00  9.000E+00
      23     2     1     2     0     0  2.066647584E-01  8.176397920E-01  1.131248257E+02  1.131355612E+02  1.310642053E+00  0.00000E+00  9.000E+00
      11     1     3     3     0     0  2.777533384E-01  1.010400384E+00  1.094371980E+02  1.094422147E+02  5.110000000E-04  0.00000E+00  9.000E+00
     -11     1     3     3     0     0 -7.108858007E-02 -1.927605923E-01  3.687627656E+00  3.693346480E+00  5.110000000E-04  0.00000E+00  9.000E+00
      -1     1     1     2     0   501 -2.066647584E-01 -8.176397920E-01  3.407392721E+01  3.408436241E+01  0.000000000E+00  0.00000E+00  9.000E+00
#rwgt            1           9  -1027743.6227349046                3     6656708           0
<weights>
-.11145E+08
-.12279E+08
-.97980E+07
-.14934E+08
-.78510E+07
-.91642E+07
-.13909E+08
-.11171E+08
-.11121E+08
-.10824E+08
-.10814E+08
-.10962E+08
-.11007E+08
-.10842E+08
-.10825E+08
-.11226E+08
-.11211E+08
-.11461E+08
-.11503E+08
-.11491E+08
-.11438E+08
-.11500E+08
-.11520E+08
-.11411E+08
-.11328E+08
-.11287E+08
-.11356E+08
-.11434E+08
-.11371E+08
-.11478E+08
-.11513E+08
-.11183E+08
-.11217E+08
-.11138E+08
-.11178E+08
-.11208E+08
-.11101E+08
-.11131E+08
-.11085E+08
-.11166E+08
-.11128E+08
-.11185E+08
-.11104E+08
-.11505E+08
-.10815E+08
</weights>
</event>
<event>
      7  10001  1.11453E+07  9.20620E+00 -1.00000E+00  1.99439E-01
      21    -1     0     0   502   501  0.000000000E+00  0.000000000E+00  1.357012318E+00  1.357012318E+00  0.000000000E+00  0.00000E+00  9.000E+00
       2    -1     0     0   501     0  0.000000000E+00  0.000000000E+00 -4.870742541E+01  4.870742541E+01  0.000000000E+00  0.00000E+00  9.000E+00
      23     2     1     2     0     0 -5.845356904E-02 -4.232356772E-01 -4.755672115E+01  4.759990979E+01  1.981701272E+00  0.00000E+00  9.000E+00
      11     1     3     3     0     0 -4.908634908E-01 -8.237871169E-01 -4.219368317E+01  4.220457881E+01  5.110000000E-04  0.00000E+00  9.000E+00
     -11     1     3     3     0     0  4.324099218E-01  4.005514397E-01 -5.363037976E+00  5.395330980E+00  5.110000000E-04  0.00000E+00  9.000E+00
       2     1     1     2   511     0 -1.483207855E-01  4.832351848E-01 -1.063012292E+00  1.177077071E+00  0.000000000E+00  0.00000E+00  9.000E+00
      21     1     1     2   502   511  2.067743546E-01 -5.999950754E-02  1.269320354E+00  1.287450867E+00  5.452684898E-07  0.00000E+00  9.000E+00
#rwgt            2         189   5401414.3401182964                3     6659447           0
<weights>
0.11145E+08
0.10680E+08
0.11491E+08
0.12980E+08
0.92073E+07
0.91702E+07
0.13910E+08
0.11186E+08
0.11104E+08
0.11074E+08
0.11114E+08
0.11149E+08
0.11060E+08
0.11106E+08
0.11113E+08
0.11103E+08
0.11191E+08
0.11077E+08
0.11299E+08
0.11310E+08
0.11068E+08
0.11176E+08
0.11171E+08
0.11236E+08
0.11102E+08
0.11115E+08
0.11156E+08
0.11311E+08
0.10933E+08
0.11175E+08
0.11154E+08
0.11143E+08
0.11155E+08
0.11067E+08
0.11253E+08
0.11121E+08
0.11168E+08
0.11030E+08
0.11266E+08
0.11079E+08
0.11199E+08
0.11207E+08
0.11080E+08
0.11188E+08
0.11099E+08
</weights>
</event>
<event>
      7  10001  1.11453E+07  8.94427E-01 -1.00000E+00  6.07649E-01
      -4    -1     0     0     0   501  0.000000000E+00  0.000000000E+00  8.577985404E+00  8.577985404E+00  0.000000000E+00  0.00000E+00  9.000E+00
      -2    -1     0     0     0   502  0.000000000E+00  0.000000000E+00 -2.550683402E+00  2.550683402E+00  0.000000000E+00  0.00000E+00  9.000E+00
      23     2     1     2     0     0 -1.898183493E-01 -5.517730328E-01  7.215294532E+00  8.163579869E+00  3.774000080E+00  0.00000E+00  9.000E+00
      11     1     3     3     0     0 -1.892758905E+00  9.171649459E-02  4.619367071E+00  4.992945082E+00  5.110000000E-04  0.00000E+00  9.000E+00
     -11     1     3     3     0     0  1.702940556E+00 -6.434895273E-01  2.595927461E+00  3.170634787E+00  5.110000000E-04  0.00000E+00  9.000E+00
      -2     1     1     2     0   501  1.333612454E-01  7.511539410E-01 -1.992901535E+00  2.133933924E+00  0.000000000E+00  0.00000E+00  9.000E+00
      -4     1     1     2     0   502  5.645710386E-02 -1.993809083E-01  8.049090041E-01  8.311550133E-01  0.000000000E+00  0.00000E+00  9.000E+00
#rwgt            2          37   19263.457085604499                3     6659584           0
<weights>
0.11145E+08
0.11494E+08
0.10530E+08
0.13970E+08
0.84375E+07
0.91702E+07
0.13910E+08
0.11112E+08
0.11178E+08
0.10853E+08
0.10844E+08
0.10981E+08
0.11005E+08
0.10871E+08
0.10854E+08
0.11180E+08
0.11258E+08
0.11450E+08
0.11428E+08
0.11416E+08
0.11432E+08
0.11465E+08
0.11480E+08
0.11345E+08
0.11320E+08
0.11358E+08
0.11074E+08
0.11435E+08
0.11281E+08
0.11444E+08
0.11467E+08
0.11147E+08
0.11241E+08
0.11153E+08
0.11161E+08
0.11091E+08
0.11221E+08
0.11092E+08
0.11116E+08
0.11155E+08
0.11135E+08
0.11204E+08
0.11083E+08
0.11469E+08
0.10847E+08
</weights>
</event>
<event>
      6  10001 -1.11453E+07  8.94427E-01 -1.00000E+00  3.32633E-01
      21    -1     0     0   502   501  0.000000000E+00  0.000000000E+00  1.030091625E-02  1.030091625E-02  0.000000000E+00  0.00000E+00  9.000E+00
       2    -1     0     0   501     0  0.000000000E+00  0.000000000E+00 -2.066841345E+02  2.066841345E+02  0.000000000E+00  0.00000E+00  9.000E+00
      23     2     1     2     0     0  4.437543548E-01  7.839716632E-01 -6.462016339E+01  6.463790883E+01  1.217461377E+00  0.00000E+00  9.000E+00
      11     1     3     3     0     0  2.672181486E-01 -2.417606909E-01 -2.983933005E+01  2.984150586E+01  5.110000000E-04  0.00000E+00  9.000E+00
     -11     1     3     3     0     0  1.765362063E-01  1.025732354E+00 -3.478083334E+01  3.479640297E+01  5.110000000E-04  0.00000E+00  9.000E+00
       2     1     1     2   502     0 -4.437543548E-01 -7.839716632E-01 -1.420536702E+02  1.420565266E+02  0.000000000E+00  0.00000E+00  9.000E+00
#rwgt            1          17  -6042019.6901597977                3     6659702           0
<weights>
-.11145E+08
-.12347E+08
-.97849E+07
-.15007E+08
-.78402E+07
-.91702E+07
-.13910E+08
-.11130E+08
-.11160E+08
-.11173E+08
-.11169E+08
-.11103E+08
-.11202E+08
-.11172E+08
-.11170E+08
-.11302E+08
-.10895E+08
-.11229E+08
-.10960E+08
-.10941E+08
-.11238E+08
-.11103E+08
-.11137E+08
-.11181E+08
-.11055E+08
-.11128E+08
-.11144E+08
-.11035E+08
-.11197E+08
-.11103E+08
-.11135E+08
-.11065E+08
-.11216E+08
-.11226E+08
-.11034E+08
-.11138E+08
-.11148E+08
-.11171E+08
-.11120E+08
-.11159E+08
-.11129E+08
-.11167E+08
-.11122E+08
-.11116E+08
-.11172E+08
</weights>
</event>
<event>
      7  10001  1.11453E+07  3.03095E+01 -1.00000E+00  1.52648E-01
      -4    -1     0     0     0   502  0.000000000E+00  0.000000000E+00  6.328726451E+01  6.328726451E+01  0.000000000E+00  0.00000E+00  9.000E+00
      21    -1     0     0   502   501  0.000000000E+00  0.000000000E+00 -3.679463323E+00  3.679463323E+00  0.000000000E+00  0.00000E+00  9.000E+00
      23     2     1     2     0     0 -3.966734842E+00 -3.247749992E+00  2.724825393E+01  2.775770086E+01  1.318995675E+00  0.00000E+00  9.000E+00
      11     1     3     3     0     0  7.443700516E-02 -2.357520173E-01  1.589579169E+00  1.608689553E+00  5.110000000E-04  0.00000E+00  9.000E+00
     -11     1     3     3     0     0 -4.041171847E+00 -3.011997975E+00  2.565867476E+01  2.614901131E+01  5.110000000E-04  0.00000E+00  9.000E+00
      -4     1     1     2     0   511 -4.256024363E+00 -1.963666186E+00  2.825977410E+01  2.864584718E+01  0.000000000E+00  0.00000E+00  9.000E+00
      21     1     1     2   511   501  8.222759205E+00  5.211416178E+00  4.099773165E+00  1.056317980E+01  1.678482037E-06  0.00000E+00  9.000E+00
#rwgt            2          41   9729074.0023438968                3     6661489           0
<weights>
0.11145E+08
0.10637E+08
0.11436E+08
0.12928E+08
0.91632E+07
0.91702E+07
0.13910E+08
0.11205E+08
0.11083E+08
0.10874E+08
0.10889E+08
0.10978E+08
0.11054E+08
0.10901E+08
0.10896E+08
0.11220E+08
0.11172E+08
0.11396E+08
0.11401E+08
0.11398E+08
0.11376E+08
0.11413E+08
0.11442E+08
0.11276E+08
0.11338E+08
0.11289E+08
0.11113E+08
0.11365E+08
0.11297E+08
0.11383E+08
0.11425E+08
0.11161E+08
0.11212E+08
0.11141E+08
0.11166E+08
0.11241E+08
0.11064E+08
0.11042E+08
0.11175E+08
0.11143E+08
0.11148E+08
0.11169E+08
0.11121E+08
0.11430E+08
0.10880E+08
</weights>
</event>
<event>
      7  10001  1.11453E+07  8.94427E-01 -1.00000E+00  6.07649E-01
       2    -1     0     0   502     0  0.000000000E+00  0.000000000E+00  1.221441079E-01  1.221441079E-01  0.000000000E+00  0.00000E+00  9.000E+00
       1    -1     0     0   501     0  0.000000000E+00  0.000000000E+00 -6.875456533E+01  6.875456533E+01  0.000000000E+00  0.00000E+00  9.000E+00
      23     2     1     2     0     0  2.906934237E-02 -2.034923325E-01 -8.075962331E+00  8.140374758E+00  1.001139082E+00  0.00000E+00  9.000E+00
      11     1     3     3     0     0  9.318299149E-02 -5.943724226E-01 -5.694762839E+00  5.726454898E+00  5.110000000E-04  0.00000E+00  9.000E+00
     -11     1     3     3     0     0 -6.411364912E-02  3.908800901E-01 -2.381199492E+00  2.413919860E+00  5.110000000E-04  0.00000E+00  9.000E+00
       1     1     1     2   502     0  7.648736592E-02  3.413690600E-01 -6.056160415E+01  6.056261454E+01  0.000000000E+00  0.00000E+00  9.000E+00
       2     1     1     2   501     0 -1.055567083E-01 -1.378767275E-01  5.145263350E-03  1.737201323E-01  0.000000000E+00  0.00000E+00  9.000E+00
#rwgt            2         251   58423.974225465776                3     6666490           0
<weights>
0.11145E+08
0.10965E+08
0.11248E+08
0.13326E+08
0.90128E+07
0.91702E+07
0.13910E+08
0.11216E+08
0.11074E+08
0.11118E+08
0.11129E+08
0.11059E+08
0.11157E+08
0.11141E+08
0.11146E+08
0.10718E+08
0.11589E+08
0.10978E+08
0.11253E+08
0.11245E+08
0.10962E+08
0.11157E+08
0.11107E+08
0.11221E+08
0.11051E+08
0.11128E+08
0.11128E+08
0.11155E+08
0.10973E+08
0.11135E+08
0.11125E+08
0.11102E+08
0.11185E+08
0.10983E+08
0.11254E+08
0.11069E+08
0.11211E+08
0.11026E+08
0.11285E+08
0.11148E+08
0.11133E+08
0.11224E+08
0.11061E+08
0.11150E+08
0.11133E+08
</weights>
</event>
<event>
      6  10001 -1.11453E+07  8.94427E-01 -1.00000E+00  2.51682E-01
      21    -1     0     0   502   501  0.000000000E+00  0.000000000E+00  2.329915489E-02  2.329915489E-02  0.000000000E+00  0.00000E+00  9.000E+00
       2    -1     0     0   501     0  0.000000000E+00  0.000000000E+00 -2.600727013E+02  2.600727013E+02  0.000000000E+00  0.00000E+00  9.000E+00
      23     2     1     2     0     0  3.809493980E-01  5.239245352E-01 -2.552612116E+02  2.552641904E+02  1.049357948E+00  0.00000E+00  9.000E+00
      11     1     3     3     0     0 -3.095841612E-01  3.042629501E-01 -5.691784270E+01  5.691949786E+01  5.110000000E-04  0.00000E+00  9.000E+00
     -11     1     3     3     0     0  6.905335592E-01  2.196615851E-01 -1.983433689E+02  1.983446926E+02  5.110000000E-04  0.00000E+00  9.000E+00
       2     1     1     2   502     0 -3.809493980E-01 -5.239245352E-01 -4.788190550E+00  4.831810024E+00  0.000000000E+00  0.00000E+00  9.000E+00
#rwgt            1          17  -44074288.501165204                3     6667330           0
<weights>
-.11145E+08
-.12005E+08
-.10112E+08
-.14590E+08
-.81020E+07
-.91702E+07
-.13910E+08
-.11127E+08
-.11162E+08
-.11171E+08
-.11164E+08
-.11070E+08
-.11238E+08
-.11167E+08
-.11165E+08
-.11329E+08
-.10864E+08
-.11300E+08
-.10878E+08
-.10847E+08
-.11316E+08
-.11104E+08
-.11150E+08
-.11148E+08
-.11092E+08
-.11177E+08
-.11117E+08
-.10957E+08
-.11302E+08
-.11093E+08
-.11152E+08
-.11041E+08
-.11242E+08
-.11299E+08
-.10944E+08
-.11131E+08
-.11155E+08
-.11169E+08
-.11122E+08
-.11186E+08
-.11107E+08
-.11156E+08
-.11133E+08
-.11121E+08
-.11169E+08
</weights>
</event>
<event>
      6  10001  1.11453E+07  8.94427E-01 -1.00000E+00  6.04255E-01
      21    -1     0     0   502   501  0.000000000E+00  0.000000000E+00  5.961634727E-01  5.961634727E-01  0.000000000E+00  0.00000E+00  9.000E+00
       2    -1     0     0   501     0  0.000000000E+00  0.000000000E+00 -8.358316034E+01  8.358316034E+01  0.000000000E+00  0.00000E+00  9.000E+00
      23     2     1     2     0     0 -2.887578335E-01 -4.683004326E-01 -8.342509783E+01  8.347603238E+01  2.863275506E+00  0.00000E+00  9.000E+00
      11     1     3     3     0     0 -1.245913092E+00  7.140372970E-03 -6.905823642E+01  6.906947494E+01  5.110000000E-04  0.00000E+00  9.000E+00
     -11     1     3     3     0     0  9.571552585E-01 -4.754408056E-01 -1.436686141E+01  1.440655743E+01  5.110000000E-04  0.00000E+00  9.000E+00
       2     1     1     2   502     0  2.887578335E-01  4.683004326E-01  4.381009681E-01  7.032914331E-01  0.000000000E+00  0.00000E+00  9.000E+00
#rwgt            1          17   68776857.514597669                3     6667671           0
<weights>
0.11145E+08
0.11651E+08
0.10700E+08
0.11826E+08
0.10229E+08
0.10810E+08
0.11393E+08
0.11178E+08
0.11113E+08
0.11105E+08
0.11142E+08
0.11188E+08
0.11043E+08
0.11135E+08
0.11140E+08
0.11122E+08
0.11146E+08
0.11023E+08
0.11305E+08
0.11325E+08
0.11009E+08
0.11151E+08
0.11136E+08
0.11268E+08
0.11030E+08
0.11046E+08
0.11194E+08
0.11334E+08
0.10862E+08
0.11163E+08
0.11123E+08
0.11150E+08
0.11138E+08
0.11020E+08
0.11306E+08
0.11129E+08
0.11156E+08
0.11074E+08
0.11227E+08
0.11071E+08
0.11205E+08
0.11218E+08
0.11067E+08
0.11157E+08
0.11128E+08
</weights>
</event>
<event>
      7  10001  1.11453E+07  1.02117E+00 -1.00000E+00  5.54539E-01
       2    -1     0     0   501     0  0.000000000E+00  0.000000000E+00  5.490670622E-02  5.490670622E-02  0.000000000E+00  0.00000E+00  9.000E+00
      21    -1     0     0   502   501  0.000000000E+00  0.000000000E+00 -5.578832430E+01  5.578832430E+01  0.000000000E+00  0.00000E+00  9.000E+00
      23     2     1     2     0     0  9.564057634E-02 -2.807464804E-01 -3.380854609E+01  3.391215356E+01  2.632186291E+00  0.00000E+00  9.000E+00
      11     1     3     3     0     0  9.145275451E-01  1.668898668E-01 -4.833757880E+00  4.922339724E+00  5.110000000E-04  0.00000E+00  9.000E+00
     -11     1     3     3     0     0 -8.188869687E-01 -4.476363472E-01 -2.897478821E+01  2.898981383E+01  5.110000000E-04  0.00000E+00  9.000E+00
       2     1     1     2   511     0 -8.472308010E-02 -7.840742935E-02 -2.280304545E+00  2.283224593E+00  0.000000000E+00  0.00000E+00  9.000E+00
      21     1     1     2   502   511 -1.091749624E-02  3.591539098E-01 -1.964456697E+01  1.964785286E+01  2.384185791E-07  0.00000E+00  9.000E+00
#rwgt            1          24   839839.47763667768                3     6695163           0
<weights>
0.11145E+08
0.12131E+08
0.10061E+08
0.12337E+08
0.97454E+07
0.10847E+08
0.11335E+08
0.11310E+08
0.10983E+08
0.10715E+08
0.10872E+08
0.10889E+08
0.11053E+08
0.10823E+08
0.10860E+08
0.11229E+08
0.11132E+08
0.11405E+08
0.11444E+08
0.11435E+08
0.11390E+08
0.11410E+08
0.11499E+08
0.11177E+08
0.11504E+08
0.11400E+08
0.11013E+08
0.11360E+08
0.11236E+08
0.11312E+08
0.11432E+08
0.11066E+08
0.11315E+08
0.11191E+08
0.11103E+08
0.11390E+08
0.10929E+08
0.10594E+08
0.11678E+08
0.11090E+08
0.11196E+08
0.11154E+08
0.11137E+08
0.11496E+08
0.10802E+08
</weights>
</event>
<event>
      7  10001  1.11453E+07  3.61600E+00 -1.00000E+00  2.70732E-01
      21    -1     0     0   512   501  0.000000000E+00  0.000000000E+00  4.497498648E+01  4.497498648E+01  0.000000000E+00  0.00000E+00  9.000E+00
      -2    -1     0     0     0   502  0.000000000E+00  0.000000000E+00 -1.373804396E+00  1.373804396E+00  0.000000000E+00  0.00000E+00  9.000E+00
      23     2     1     2     0     0 -7.431847011E-01  1.472696189E+00  1.456706676E+01  1.555723200E+01  5.206426414E+00  0.00000E+00  9.000E+00
      11     1     3     3     0     0 -6.319738539E-01  1.482770999E+00  1.501211047E+01  1.509839268E+01  5.110000000E-04  0.00000E+00  9.000E+00
     -11     1     3     3     0     0 -1.112108472E-01 -1.007481005E-02 -4.450437074E-01  4.588393150E-01  5.110000000E-04  0.00000E+00  9.000E+00
      -2     1     1     2     0   501  4.273891579E+00 -6.919533434E-01  5.591810435E+00  7.072007679E+00  0.000000000E+00  0.00000E+00  9.000E+00
      21     1     1     2   512   502 -3.530706878E+00 -7.807428455E-01  2.344230489E+01  2.371955120E+01  5.840038640E-07  0.00000E+00  9.000E+00
#rwgt            1          14   288588.06498164660                3     6804252           0
<weights>
0.11145E+08
0.12372E+08
0.98918E+07
0.12266E+08
0.98232E+07
0.11086E+08
0.10969E+08
0.10976E+08
0.11332E+08
0.10821E+08
0.10779E+08
0.10979E+08
0.10955E+08
0.10828E+08
0.10794E+08
0.11165E+08
0.11322E+08
0.11518E+08
0.11480E+08
0.11463E+08
0.11498E+08
0.11541E+08
0.11535E+08
0.11443E+08
0.11297E+08
0.11395E+08
0.11096E+08
0.11514E+08
0.11310E+08
0.11532E+08
0.11534E+08
0.11151E+08
0.11260E+08
0.11149E+08
0.11174E+08
0.10978E+08
0.11348E+08
0.11181E+08
0.11032E+08
0.11173E+08
0.11118E+08
0.11229E+08
0.11057E+08
0.11527E+08
0.10796E+08
</weights>
</event>
<event>
      7  10001  1.11453E+07  9.92933E-01 -1.00000E+00  5.65330E-01
       2    -1     0     0   501     0  0.000000000E+00  0.000000000E+00  3.558168649E+01  3.558168649E+01  0.000000000E+00  0.00000E+00  9.000E+00
      -2    -1     0     0     0   502  0.000000000E+00  0.000000000E+00 -5.352587045E-02  5.352587045E-02  0.000000000E+00  0.00000E+00  9.000E+00
      23     2     1     2     0     0  2.768818145E-01 -1.776999388E-02  2.600596548E+01  2.606587482E+01  1.744307926E+00  0.00000E+00  9.000E+00
      11     1     3     3     0     0 -2.704749832E-01 -7.458965615E-01  1.558077885E+01  1.560096754E+01  5.110000000E-04  0.00000E+00  9.000E+00
     -11     1     3     3     0     0  5.473567977E-01  7.281265676E-01  1.042518663E+01  1.046490727E+01  5.110000000E-04  0.00000E+00  9.000E+00
      21     1     1     2   501   511 -1.228901537E-01  4.209786211E-01  6.699073596E+00  6.713412845E+00  8.429369702E-08  0.00000E+00  9.000E+00
      21     1     1     2   511   502 -1.539916609E-01 -4.032086272E-01  2.823121549E+00  2.855924703E+00  5.960464478E-08  0.00000E+00  9.000E+00
#rwgt            1          23   533927.79319697141                3     6813091           0
<weights>
0.11145E+08
0.12903E+08
0.94653E+07
0.12164E+08
0.96959E+07
0.11453E+08
0.10405E+08
0.10895E+08
0.11495E+08
0.10792E+08
0.10739E+08
0.10968E+08
0.10939E+08
0.10795E+08
0.10755E+08
0.11188E+08
0.11312E+08
0.11537E+08
0.11568E+08
0.11543E+08
0.11515E+08
0.11589E+08
0.11578E+08
0.11568E+08
0.11269E+08
0.11336E+08
0.11433E+08
0.11532E+08
0.11391E+08
0.11582E+08
0.11585E+08
0.11176E+08
0.11251E+08
0.11133E+08
0.11195E+08
0.11016E+08
0.11321E+08
0.11235E+08
0.10988E+08
0.11185E+08
0.11109E+08
0.11221E+08
0.11065E+08
0.11570E+08
0.10759E+08
</weights>
</event>
<event>
      7  10001  1.11453E+07  4.30251E+00 -1.00000E+00  2.53318E-01
      -2    -1     0     0     0   502  0.000000000E+00  0.000000000E+00  5.671863263E-01  5.671863263E-01  0.000000000E+00  0.00000E+00  9.000E+00
      21    -1     0     0   502   501  0.000000000E+00  0.000000000E+00 -1.129325141E+01  1.129325141E+01  0.000000000E+00  0.00000E+00  9.000E+00
      23     2     1     2     0     0  2.662805408E-01 -3.803858791E-01 -4.795540600E-01  1.465476427E+00  1.304626505E+00  0.00000E+00  9.000E+00
      11     1     3     3     0     0 -1.645663202E-01 -2.491276068E-01 -8.381611561E-01  8.897533495E-01  5.110000000E-04  0.00000E+00  9.000E+00
     -11     1     3     3     0     0  4.308468610E-01 -1.312582723E-01  3.586070961E-01  5.757230777E-01  5.110000000E-04  0.00000E+00  9.000E+00
      -2     1     1     2     0   512 -4.834123389E-03  2.035042042E-01 -7.254875223E-02  2.161033349E-01  0.000000000E+00  0.00000E+00  9.000E+00
      21     1     1     2   512   501 -2.614464174E-01  1.768816749E-01 -1.017396227E+01  1.017885798E+01  2.665600750E-07  0.00000E+00  9.000E+00
#rwgt            2         101   1326356.3816508001                3     6814597           0
<weights>
0.11145E+08
0.11105E+08
0.10978E+08
0.13496E+08
0.87962E+07
0.91702E+07
0.13910E+08
0.11212E+08
0.11077E+08
0.10901E+08
0.10933E+08
0.10987E+08
0.11080E+08
0.10934E+08
0.10938E+08
0.11211E+08
0.11156E+08
0.11351E+08
0.11358E+08
0.11355E+08
0.11335E+08
0.11360E+08
0.11399E+08
0.11225E+08
0.11337E+08
0.11289E+08
0.11076E+08
0.11322E+08
0.11254E+08
0.11325E+08
0.11372E+08
0.11144E+08
0.11214E+08
0.11145E+08
0.11157E+08
0.11254E+08
0.11050E+08
0.10982E+08
0.11238E+08
0.11129E+08
0.11161E+08
0.11160E+08
0.11130E+08
0.11386E+08
0.10918E+08
</weights>
</event>
<event>
      6  10001 -1.11453E+07  8.94427E-01 -1.00000E+00  5.87706E-01
       4    -1     0     0   501     0  0.000000000E+00  0.000000000E+00  5.266800702E+01  5.266800702E+01  0.000000000E+00  0.00000E+00  9.000E+00
      21    -1     0     0   502   501  0.000000000E+00  0.000000000E+00 -1.721435280E-02  1.721435280E-02  0.000000000E+00  0.00000E+00  9.000E+00
      23     2     1     2     0     0  5.427710149E-01  3.041588307E-01  3.533855947E+01  3.536181145E+01  1.121075763E+00  0.00000E+00  9.000E+00
      11     1     3     3     0     0 -1.674041991E-01  4.174123423E-01  2.138845137E+01  2.139317904E+01  5.110000000E-04  0.00000E+00  9.000E+00
     -11     1     3     3     0     0  7.101752141E-01 -1.132535116E-01  1.395010810E+01  1.396863242E+01  5.110000000E-04  0.00000E+00  9.000E+00
       4     1     1     2   502     0 -5.427710149E-01 -3.041588307E-01  1.731223319E+01  1.732340992E+01  0.000000000E+00  0.00000E+00  9.000E+00
#rwgt            1          28  -1519185.2169861007                3     6816615           0
<weights>
-.11145E+08
-.13120E+08
-.90170E+07
-.15953E+08
-.72251E+07
-.91661E+07
-.13909E+08
-.11173E+08
-.11118E+08
-.10825E+08
-.10816E+08
-.10962E+08
-.11008E+08
-.10843E+08
-.10827E+08
-.11226E+08
-.11209E+08
-.11459E+08
-.11499E+08
-.11488E+08
-.11436E+08
-.11498E+08
-.11517E+08
-.11406E+08
-.11329E+08
-.11287E+08
-.11340E+08
-.11432E+08
-.11369E+08
-.11475E+08
-.11510E+08
-.11183E+08
-.11217E+08
-.11138E+08
-.11177E+08
-.11210E+08
-.11100E+08
-.11128E+08
-.11088E+08
-.11165E+08
-.11128E+08
-.11185E+08
-.11104E+08
-.11502E+08
-.10817E+08
</weights>
</event>
<event>
      6  10001 -1.11453E+07  8.94427E-01 -1.00000E+00  1.83745E-01
       2    -1     0     0   501     0  0.000000000E+00  0.000000000E+00  1.749395481E+02  1.749395481E+02  0.000000000E+00  0.00000E+00  9.000E+00
      -2    -1     0     0     0   502  0.000000000E+00  0.000000000E+00 -2.423299851E-02  2.423299851E-02  0.000000000E+00  0.00000E+00  9.000E+00
      23     2     1     2     0     0  6.209216121E-02  2.730133650E-01  1.502847668E+02  1.503316415E+02  3.743382322E+00  0.00000E+00  9.000E+00
      11     1     3     3     0     0 -1.344888603E+00  2.496023135E-01  1.251766215E+02  1.251840948E+02  5.110000000E-04  0.00000E+00  9.000E+00
     -11     1     3     3     0     0  1.406980764E+00  2.341105153E-02  2.510814529E+01  2.514754666E+01  5.110000000E-04  0.00000E+00  9.000E+00
      21     1     1     2   501   502 -6.209216121E-02 -2.730133650E-01  2.463054827E+01  2.463213957E+01  3.371747881E-07  0.00000E+00  9.000E+00
#rwgt            1          23  -26756605.171269719                3     6818849           0
<weights>
-.11145E+08
-.12564E+08
-.95593E+07
-.15287E+08
-.76600E+07
-.91598E+07
-.13909E+08
-.11099E+08
-.11222E+08
-.10812E+08
-.10789E+08
-.10962E+08
-.10986E+08
-.10825E+08
-.10801E+08
-.11217E+08
-.11239E+08
-.11486E+08
-.11526E+08
-.11511E+08
-.11463E+08
-.11530E+08
-.11541E+08
-.11459E+08
-.11313E+08
-.11300E+08
-.11383E+08
-.11465E+08
-.11381E+08
-.11512E+08
-.11538E+08
-.11183E+08
-.11226E+08
-.11136E+08
-.11183E+08
-.11158E+08
-.11159E+08
-.11165E+08
-.11053E+08
-.11173E+08
-.11122E+08
-.11195E+08
-.11093E+08
-.11527E+08
-.10795E+08
</weights>
</event>
<event>
      6  10001  1.11453E+07  8.94427E-01 -1.00000E+00  6.06052E-01
      21    -1     0     0   502   501  0.000000000E+00  0.000000000E+00  1.726865943E+02  1.726865943E+02  0.000000000E+00  0.00000E+00  9.000E+00
      -4    -1     0     0     0   502  0.000000000E+00  0.000000000E+00 -1.588625651E-01  1.588625651E-01  0.000000000E+00  0.00000E+00  9.000E+00
      23     2     1     2     0     0 -7.985986850E-02  4.314019942E-01  4.007593924E+00  4.324747951E+00  1.565295658E+00  0.00000E+00  9.000E+00
      11     1     3     3     0     0  8.656953243E-02  8.076098941E-01  3.755370677E+00  3.842204733E+00  5.110000000E-04  0.00000E+00  9.000E+00
     -11     1     3     3     0     0 -1.664294009E-01 -3.762078999E-01  2.522232467E-01  4.825432175E-01  5.110000000E-04  0.00000E+00  9.000E+00
      -4     1     1     2     0   501  7.985986850E-02 -4.314019942E-01  1.685201379E+02  1.685207090E+02  0.000000000E+00  0.00000E+00  9.000E+00
#rwgt            1          12   6718994.8427833924                3     6819385           0
<weights>
0.11140E+08
0.11762E+08
0.10433E+08
0.12707E+08
0.94622E+07
0.10304E+08
0.12263E+08
0.11170E+08
0.11108E+08
0.10770E+08
0.10739E+08
0.10934E+08
0.10969E+08
0.10780E+08
0.10752E+08
0.11233E+08
0.11237E+08
0.11531E+08
0.11562E+08
0.11552E+08
0.11501E+08
0.11579E+08
0.11588E+08
0.11453E+08
0.11353E+08
0.11322E+08
0.11295E+08
0.11508E+08
0.11417E+08
0.11563E+08
0.11591E+08
0.11203E+08
0.11213E+08
0.11125E+08
0.11188E+08
0.11207E+08
0.11095E+08
0.11207E+08
0.10996E+08
0.11183E+08
0.11104E+08
0.11187E+08
0.11091E+08
0.11572E+08
0.10747E+08
</weights>
</event>
<event>
      6  10001 -1.11453E+07  8.94427E-01 -1.00000E+00  5.73227E-01
      -4    -1     0     0     0   502  0.000000000E+00  0.000000000E+00  1.637661260E+02  1.637661260E+02  0.000000000E+00  0.00000E+00  9.000E+00
      21    -1     0     0   502   501  0.000000000E+00  0.000000000E+00 -5.266023143E-03  5.266023143E-03  0.000000000E+00  0.00000E+00  9.000E+00
      23     2     1     2     0     0  6.892557445E-02 -4.139919636E-01  1.489793174E+02  1.489838926E+02  1.089533215E+00  0.00000E+00  9.000E+00
      11     1     3     3     0     0  6.420244711E-02 -5.358168649E-01  1.469074465E+02  1.469084376E+02  5.110000000E-04  0.00000E+00  9.000E+00
     -11     1     3     3     0     0  4.723127341E-03  1.218249014E-01  2.071870949E+00  2.075454915E+00  5.110000000E-04  0.00000E+00  9.000E+00
      -4     1     1     2     0   501 -6.892557445E-02  4.139919636E-01  1.478154253E+01  1.478749944E+01  0.000000000E+00  0.00000E+00  9.000E+00
#rwgt            1           3  -1876299.1793036996                3     6846750           0
<weights>
-.11145E+08
-.12918E+08
-.91645E+07
-.15707E+08
-.73432E+07
-.91665E+07
-.13909E+08
-.11181E+08
-.11109E+08
-.10874E+08
-.10882E+08
-.10982E+08
-.11043E+08
-.10901E+08
-.10890E+08
-.11219E+08
-.11174E+08
-.11396E+08
-.11418E+08
-.11408E+08
-.11378E+08
-.11422E+08
-.11440E+08
-.11334E+08
-.11306E+08
-.11257E+08
-.11272E+08
-.11363E+08
-.11317E+08
-.11395E+08
-.11433E+08
-.11165E+08
-.11212E+08
-.11142E+08
-.11166E+08
-.11216E+08
-.11091E+08
-.11074E+08
-.11163E+08
-.11145E+08
-.11146E+08
-.11175E+08
-.11114E+08
-.11434E+08
-.10876E+08
</weights>
</event>
<event>
      6  10001 -1.11453E+07  8.94427E-01 -1.00000E+00  4.27654E-01
      21    -1     0     0   502   501  0.000000000E+00  0.000000000E+00  7.902248860E-02  7.902248860E-02  0.000000000E+00  0.00000E+00  9.000E+00
      -4    -1     0     0     0   502  0.000000000E+00  0.000000000E+00 -7.577919493E+00  7.577919493E+00  0.000000000E+00  0.00000E+00  9.000E+00
      23     2     1     2     0     0 -2.551656142E-01  8.013332703E-02 -6.106405372E+00  6.238998476E+00  1.251153295E+00  0.00000E+00  9.000E+00
      11     1     3     3     0     0 -5.551802320E-02  4.633697406E-01 -8.918909914E-01  1.006609939E+00  5.110000000E-04  0.00000E+00  9.000E+00
     -11     1     3     3     0     0 -1.996475910E-01 -3.832364136E-01 -5.214514381E+00  5.232388537E+00  5.110000000E-04  0.00000E+00  9.000E+00
      -4     1     1     2     0   501  2.551656142E-01 -8.013332703E-02 -1.392491632E+00  1.417943506E+00  0.000000000E+00  0.00000E+00  9.000E+00
#rwgt            1          12  -1358194.2137655595                3     6848828           0
<weights>
-.11075E+08
-.85596E+07
-.12602E+08
-.15729E+08
-.73019E+07
-.58492E+07
-.18832E+08
-.11132E+08
-.11020E+08
-.10978E+08
-.11049E+08
-.10985E+08
-.11100E+08
-.11031E+08
-.11049E+08
-.11113E+08
-.10994E+08
-.11089E+08
-.11085E+08
-.11079E+08
-.11090E+08
-.11077E+08
-.11108E+08
-.11033E+08
-.11149E+08
-.11078E+08
-.11048E+08
-.11046E+08
-.11061E+08
-.11034E+08
-.11085E+08
-.11026E+08
-.11129E+08
-.11092E+08
-.11052E+08
-.11161E+08
-.10997E+08
-.10796E+08
-.11364E+08
-.11004E+08
-.11138E+08
-.11071E+08
-.11080E+08
-.11120E+08
-.11022E+08
</weights>
</event>
<event>
      6  10001 -1.11453E+07  8.94427E-01 -1.00000E+00  4.42381E-01
      21    -1     0     0   502   501  0.000000000E+00  0.000000000E+00  2.504615474E-02  2.504615474E-02  0.000000000E+00  0.00000E+00  9.000E+00
       2    -1     0     0   501     0  0.000000000E+00  0.000000000E+00 -1.126261671E+02  1.126261671E+02  0.000000000E+00  0.00000E+00  9.000E+00
      23     2     1     2     0     0 -6.554075127E-02 -8.828908135E-01 -6.815346740E+01  6.819474356E+01  2.200940525E+00  0.00000E+00  9.000E+00
      11     1     3     3     0     0 -5.088128363E-01 -1.281627071E+00 -2.560850570E+01  2.564560436E+01  5.110000000E-04  0.00000E+00  9.000E+00
     -11     1     3     3     0     0  4.432720850E-01  3.987362578E-01 -4.254496170E+01  4.254913920E+01  5.110000000E-04  0.00000E+00  9.000E+00
       2     1     1     2   502     0  6.554075127E-02  8.828908135E-01 -4.444765359E+01  4.445646973E+01  0.000000000E+00  0.00000E+00  9.000E+00
#rwgt            1          17  -17506734.903381616                3     6859705           0
<weights>
-.11145E+08
-.12650E+08
-.95000E+07
-.15374E+08
-.76119E+07
-.91702E+07
-.13910E+08
-.11147E+08
-.11142E+08
-.11157E+08
-.11169E+08
-.11154E+08
-.11130E+08
-.11169E+08
-.11169E+08
-.11206E+08
-.11020E+08
-.11104E+08
-.11125E+08
-.11128E+08
-.11102E+08
-.11114E+08
-.11116E+08
-.11226E+08
-.11019E+08
-.11068E+08
-.11178E+08
-.11183E+08
-.11011E+08
-.11124E+08
-.11113E+08
-.11115E+08
-.11164E+08
-.11110E+08
-.11183E+08
-.11137E+08
-.11148E+08
-.11137E+08
-.11160E+08
-.11109E+08
-.11172E+08
-.11189E+08
-.11098E+08
-.11120E+08
-.11166E+08
</weights>
</event>
<event>
      6  10001 -1.11453E+07  8.94427E-01 -1.00000E+00  6.48980E-01
       2    -1     0     0   501     0  0.000000000E+00  0.000000000E+00  1.368432258E+02  1.368432258E+02  0.000000000E+00  0.00000E+00  9.000E+00
      21    -1     0     0   502   501  0.000000000E+00  0.000000000E+00 -9.916100854E-03  9.916100854E-03  0.000000000E+00  0.00000E+00  9.000E+00
      23     2     1     2     0     0  3.473813457E-01  3.323323212E-01  1.264340529E+02  1.264427788E+02  1.405507527E+00  0.00000E+00  9.000E+00
      11     1     3     3     0     0 -9.609295981E-02 -7.467042157E-02  1.055087304E+02  1.055088006E+02  5.110000000E-04  0.00000E+00  9.000E+00
     -11     1     3     3     0     0  4.434743055E-01  4.070027428E-01  2.092532255E+01  2.093397823E+01  5.110000000E-04  0.00000E+00  9.000E+00
       2     1     1     2   502     0 -3.473813457E-01 -3.323323212E-01  1.039925671E+01  1.041036305E+01  0.000000000E+00  0.00000E+00  9.000E+00
#rwgt            1          24  -15668995.987128612                3     6860834           0
<weights>
-.11145E+08
-.11831E+08
-.10451E+08
-.14361E+08
-.83728E+07
-.91825E+07
-.13911E+08
-.11190E+08
-.11100E+08
-.10875E+08
-.10894E+08
-.10986E+08
-.11044E+08
-.10905E+08
-.10900E+08
-.11220E+08
-.11162E+08
-.11383E+08
-.11410E+08
-.11401E+08
-.11365E+08
-.11406E+08
-.11435E+08
-.11312E+08
-.11312E+08
-.11242E+08
-.11254E+08
-.11343E+08
-.11311E+08
-.11375E+08
-.11419E+08
-.11157E+08
-.11216E+08
-.11147E+08
-.11159E+08
-.11219E+08
-.11087E+08
-.11037E+08
-.11198E+08
-.11140E+08
-.11150E+08
-.11176E+08
-.11113E+08
-.11425E+08
-.10884E+08
</weights>
</event>
<event>
      7  10001  1.11453E+07  8.94427E-01 -1.00000E+00  6.07649E-01
       2    -1     0     0   502     0  0.000000000E+00  0.000000000E+00  2.889352560E+02  2.889352560E+02  0.000000000E+00  0.00000E+00  9.000E+00
       2    -1     0     0   501     0  0.000000000E+00  0.000000000E+00 -2.751871108E-02  2.751871108E-02  0.000000000E+00  0.00000E+00  9.000E+00
      23     2     1     2     0     0 -6.033285096E-01  1.228060949E-01  2.482234311E+02  2.482271844E+02  1.218307793E+00  0.00000E+00  9.000E+00
      11     1     3     3     0     0 -7.262487053E-01  2.422004111E-01  2.424549236E+02  2.424561323E+02  5.110000000E-04  0.00000E+00  9.000E+00
     -11     1     3     3     0     0  1.229201957E-01 -1.193943162E-01  5.768507478E+00  5.771052171E+00  5.110000000E-04  0.00000E+00  9.000E+00
       2     1     1     2   502     0  1.093612904E+00 -7.209865293E-02  1.277360492E+01  1.282053704E+01  0.000000000E+00  0.00000E+00  9.000E+00
       2     1     1     2   501     0 -4.902843947E-01 -5.070744197E-02  2.791070128E+01  2.791505322E+01  0.000000000E+00  0.00000E+00  9.000E+00
#rwgt            2         253   198151.50721907284                3     6863728           0
<weights>
0.11145E+08
0.11144E+08
0.10990E+08
0.13544E+08
0.88056E+07
0.91702E+07
0.13910E+08
0.11051E+08
0.11289E+08
0.10809E+08
0.10779E+08
0.10964E+08
0.10976E+08
0.10820E+08
0.10792E+08
0.11210E+08
0.11256E+08
0.11496E+08
0.11536E+08
0.11518E+08
0.11473E+08
0.11542E+08
0.11548E+08
0.11484E+08
0.11303E+08
0.11307E+08
0.11400E+08
0.11479E+08
0.11382E+08
0.11527E+08
0.11547E+08
0.11182E+08
0.11231E+08
0.11135E+08
0.11187E+08
0.11127E+08
0.11195E+08
0.11180E+08
0.11039E+08
0.11175E+08
0.11119E+08
0.11201E+08
0.11087E+08
0.11535E+08
0.10788E+08
</weights>
</event>
<event>
      7  10001  1.11453E+07  3.97377E+00 -1.00000E+00  2.60948E-01
      21    -1     0     0   511   501  0.000000000E+00  0.000000000E+00  2.392592633E+02  2.392592633E+02  0.000000000E+00  0.00000E+00  9.000E+00
       4    -1     0     0   501     0  0.000000000E+00  0.000000000E+00 -2.395784811E+00  2.395784811E+00  0.000000000E+00  0.00000E+00  9.000E+00
      23     2     1     2     0     0 -3.796286703E-01 -4.665074760E-01 -1.414786338E+00  2.133987659E+00  1.480045876E+00  0.00000E+00  9.000E+00
      11     1     3     3     0     0  3.217472132E-02  1.583592952E-01  2.562973239E-01  3.029875549E-01  5.110000000E-04  0.00000E+00  9.000E+00
     -11     1     3     3     0     0 -4.118033916E-01 -6.248667712E-01 -1.671083662E+00  1.831000104E+00  5.110000000E-04  0.00000E+00  9.000E+00
       4     1     1     2   502     0 -1.895063551E+00 -2.791805679E+00  4.103759877E+00  5.312841983E+00  0.000000000E+00  0.00000E+00  9.000E+00
      21     1     1     2   511   502  2.274692222E+00  3.258313155E+00  2.341745049E+02  2.342082185E+02  2.697398305E-06  0.00000E+00  9.000E+00
#rwgt            1          19   994721.59027367865                3     6863979           0
<weights>
0.11145E+08
0.13949E+08
0.84464E+07
0.12306E+08
0.95936E+07
0.12217E+08
0.92326E+07
0.11204E+08
0.11080E+08
0.10724E+08
0.10683E+08
0.10903E+08
0.10961E+08
0.10729E+08
0.10698E+08
0.11248E+08
0.11275E+08
0.11609E+08
0.11607E+08
0.11606E+08
0.11572E+08
0.11654E+08
0.11662E+08
0.11435E+08
0.11435E+08
0.11429E+08
0.11096E+08
0.11599E+08
0.11436E+08
0.11638E+08
0.11665E+08
0.11223E+08
0.11222E+08
0.11118E+08
0.11209E+08
0.11256E+08
0.11056E+08
0.11230E+08
0.10949E+08
0.11203E+08
0.11097E+08
0.11187E+08
0.11102E+08
0.11642E+08
0.10693E+08
</weights>
</event>
<event>
      7  10001  1.11453E+07  8.94427E-01 -1.00000E+00  6.07649E-01
      21    -1     0     0   502   501  0.000000000E+00  0.000000000E+00  4.844380960E-01  4.844380960E-01  0.000000000E+00  0.00000E+00  9.000E+00
      -2    -1     0     0     0   502  0.000000000E+00  0.000000000E+00 -1.341409334E+00  1.341409334E+00  0.000000000E+00  0.00000E+00  9.000E+00
      23     2     1     2     0     0  1.522652092E-01 -2.074956445E-01 -5.096594339E-01  1.282746584E+00  1.148671809E+00  0.00000E+00  9.000E+00
      11     1     3     3     0     0  3.520413539E-01  3.590388079E-01 -1.251939484E-02  5.029900365E-01  5.110000000E-04  0.00000E+00  9.000E+00
     -11     1     3     3     0     0 -1.997761447E-01 -5.665344524E-01 -4.971400391E-01  7.797565475E-01  5.110000000E-04  0.00000E+00  9.000E+00
      -2     1     1     2     0   511 -6.810238473E-02  1.189477682E-01  3.523575021E-02  1.415205443E-01  0.000000000E+00  0.00000E+00  9.000E+00
      21     1     1     2   511   501 -8.416282447E-02  8.854787629E-02 -3.825475540E-01  4.015803014E-01  1.393875996E-08  0.00000E+00  9.000E+00
#rwgt            2         160   23756260.663863774                3     6869942           0
<weights>
0.11145E+08
0.12184E+08
0.98344E+07
0.14808E+08
0.78799E+07
0.91702E+07
0.13910E+08
0.11094E+08
0.11202E+08
0.10845E+08
0.10830E+08
0.10978E+08
0.11000E+08
0.10861E+08
0.10841E+08
0.11189E+08
0.11254E+08
0.11461E+08
0.11444E+08
0.11433E+08
0.11442E+08
0.11482E+08
0.11493E+08
0.11365E+08
0.11318E+08
0.11347E+08
0.11105E+08
0.11445E+08
0.11303E+08
0.11462E+08
0.11484E+08
0.11155E+08
0.11238E+08
0.11147E+08
0.11168E+08
0.11100E+08
0.11215E+08
0.11115E+08
0.11099E+08
0.11159E+08
0.11132E+08
0.11202E+08
0.11086E+08
0.11482E+08
0.10835E+08
</weights>
</event>
<event>
      7  10001  1.11453E+07  3.04602E+00 -1.00000E+00  2.90377E-01
      -4    -1     0     0     0   502  0.000000000E+00  0.000000000E+00  4.961534413E-02  4.961534413E-02  0.000000000E+00  0.00000E+00  9.000E+00
      21    -1     0     0   502   501  0.000000000E+00  0.000000000E+00 -2.106578036E+02  2.106578036E+02  0.000000000E+00  0.00000E+00  9.000E+00
      23     2     1     2     0     0 -1.511315716E-01  7.890609684E-01 -1.609359366E+01  1.617426430E+01  1.399146460E+00  0.00000E+00  9.000E+00
      11     1     3     3     0     0  1.066846700E-01  4.706104218E-01 -1.516712856E+00  1.591626192E+00  5.110000000E-04  0.00000E+00  9.000E+00
     -11     1     3     3     0     0 -2.578162415E-01  3.184505466E-01 -1.457688080E+01  1.458263811E+01  5.110000000E-04  0.00000E+00  9.000E+00
      -4     1     1     2     0   512  1.148143799E+00  3.124925942E-01 -7.766723019E+01  7.767634473E+01  0.000000000E+00  0.00000E+00  9.000E+00
      21     1     1     2   512   501 -9.970122276E-01 -1.101553563E+00 -1.168473644E+02  1.168568099E+02  2.336015456E-06  0.00000E+00  9.000E+00
#rwgt            1           3   1112142.2451152981                3     6870516           0
<weights>
0.11145E+08
0.11505E+08
0.10609E+08
0.12486E+08
0.96173E+07
0.10247E+08
0.12256E+08
0.11095E+08
0.11190E+08
0.11348E+08
0.11317E+08
0.11097E+08
0.11408E+08
0.11399E+08
0.11361E+08
0.11129E+08
0.11002E+08
0.10945E+08
0.10810E+08
0.10806E+08
0.10967E+08
0.10918E+08
0.10798E+08
0.11093E+08
0.10860E+08
0.10955E+08
0.11205E+08
0.10952E+08
0.10973E+08
0.10918E+08
0.10895E+08
0.11124E+08
0.11089E+08
0.11121E+08
0.11157E+08
0.11152E+08
0.11129E+08
0.11074E+08
0.11265E+08
0.10986E+08
0.11294E+08
0.11067E+08
0.11229E+08
0.10910E+08
0.11343E+08
</weights>
</event>
<event>
      6  10001 -1.11453E+07  8.94427E-01 -1.00000E+00  1.63182E-01
      21    -1     0     0   502   501  0.000000000E+00  0.000000000E+00  5.204616655E+01  5.204616655E+01  0.000000000E+00  0.00000E+00  9.000E+00
       1    -1     0     0   501     0  0.000000000E+00  0.000000000E+00 -1.401674543E-02  1.401674543E-02  0.000000000E+00  0.00000E+00  9.000E+00
      23     2     1     2     0     0  1.704590769E-01 -2.074973131E-01  4.272500762E+01  4.274916793E+01  1.411726397E+00  0.00000E+00  9.000E+00
      11     1     3     3     0     0  1.848894508E-01 -4.584289647E-01  5.227689512E+00  5.251007438E+00  5.110000000E-04  0.00000E+00  9.000E+00
     -11     1     3     3     0     0 -1.443037388E-02  2.509316516E-01  3.749731810E+01  3.749816049E+01  5.110000000E-04  0.00000E+00  9.000E+00
       1     1     1     2   502     0 -1.704590769E-01  2.074973131E-01  9.307142185E+00  9.311015363E+00  0.000000000E+00  0.00000E+00  9.000E+00
#rwgt            1          16  -210128.77386450677                3     6912641           0
<weights>
-.11145E+08
-.12530E+08
-.95208E+07
-.15237E+08
-.76288E+07
-.91655E+07
-.13909E+08
-.11147E+08
-.11153E+08
-.10818E+08
-.10802E+08
-.10960E+08
-.10999E+08
-.10834E+08
-.10814E+08
-.11226E+08
-.11219E+08
-.11476E+08
-.11510E+08
-.11497E+08
-.11452E+08
-.11514E+08
-.11530E+08
-.11426E+08
-.11326E+08
-.11295E+08
-.11346E+08
-.11447E+08
-.11378E+08
-.11493E+08
-.11525E+08
-.11185E+08
-.11220E+08
-.11140E+08
-.11178E+08
-.11191E+08
-.11121E+08
-.11147E+08
-.11070E+08
-.11169E+08
-.11125E+08
-.11189E+08
-.11100E+08
-.11516E+08
-.10805E+08
</weights>
</event>
<event>
      6  10001 -1.11453E+07  8.94427E-01 -1.00000E+00  2.98167E-01
      -4    -1     0     0     0   502  0.000000000E+00  0.000000000E+00  1.917208417E+02  1.917208417E+02  0.000000000E+00  0.00000E+00  9.000E+00
      21    -1     0     0   502   501  0.000000000E+00  0.000000000E+00 -2.418023171E-02  2.418023171E-02  0.000000000E+00  0.00000E+00  9.000E+00
      23     2     1     2     0     0 -1.733123298E+00 -3.896491701E-01  1.420714801E+02  1.420880570E+02  1.246970082E+00  0.00000E+00  9.000E+00
      11     1     3     3     0     0 -1.917442082E+00 -2.481486310E-01  1.294529955E+02  1.294674330E+02  5.110000000E-04  0.00000E+00  9.000E+00
     -11     1     3     3     0     0  1.843187835E-01 -1.415005391E-01  1.261848460E+01  1.262062398E+01  5.110000000E-04  0.00000E+00  9.000E+00
      -4     1     1     2     0   501  1.733123298E+00  3.896491701E-01  4.962518140E+01  4.965696499E+01  0.000000000E+00  0.00000E+00  9.000E+00
#rwgt            1           3  -1313614.0031703676                3     6914784           0
<weights>
-.11145E+08
-.13051E+08
-.90337E+07
-.15844E+08
-.72376E+07
-.91824E+07
-.13911E+08
-.11173E+08
-.11118E+08
-.10825E+08
-.10815E+08
-.10962E+08
-.11008E+08
-.10843E+08
-.10826E+08
-.11226E+08
-.11210E+08
-.11460E+08
-.11500E+08
-.11489E+08
-.11437E+08
-.11499E+08
-.11519E+08
-.11406E+08
-.11329E+08
-.11287E+08
-.11338E+08
-.11433E+08
-.11370E+08
-.11476E+08
-.11511E+08
-.11183E+08
-.11217E+08
-.11138E+08
-.11177E+08
-.11210E+08
-.11100E+08
-.11130E+08
-.11086E+08
-.11166E+08
-.11128E+08
-.11185E+08
-.11104E+08
-.11504E+08
-.10816E+08
</weights>
</event>
<event>
      6  10001 -1.11453E+07  8.94427E-01 -1.00000E+00  3.41413E-01
       2    -1     0     0   501     0  0.000000000E+00  0.000000000E+00  1.367602843E+02  1.367602843E+02  0.000000000E+00  0.00000E+00  9.000E+00
      -2    -1     0     0     0   502  0.000000000E+00  0.000000000E+00 -2.227205257E-02  2.227205257E-02  0.000000000E+00  0.00000E+00  9.000E+00
      23     2     1     2     0     0 -1.056568979E+00  1.122449080E-01  6.604009271E+01  6.607665304E+01  1.923874823E+00  0.00000E+00  9.000E+00
      11     1     3     3     0     0 -1.082831601E-03 -7.878759301E-01  2.866790962E+01  2.867873414E+01  5.110000000E-04  0.00000E+00  9.000E+00
     -11     1     3     3     0     0 -1.055486147E+00  9.001208381E-01  3.737218309E+01  3.739791889E+01  5.110000000E-04  0.00000E+00  9.000E+00
      21     1     1     2   501   502  1.056568979E+00 -1.122449080E-01  7.069791952E+01  7.070590330E+01  0.000000000E+00  0.00000E+00  9.000E+00
#rwgt            1          23  -918859.94737703050                3     6915751           0
<weights>
-.11145E+08
-.13145E+08
-.89841E+07
-.15982E+08
-.71987E+07
-.91670E+07
-.13909E+08
-.11131E+08
-.11176E+08
-.10817E+08
-.10799E+08
-.10962E+08
-.10995E+08
-.10832E+08
-.10811E+08
-.11221E+08
-.11227E+08
-.11477E+08
-.11515E+08
-.11501E+08
-.11453E+08
-.11518E+08
-.11532E+08
-.11434E+08
-.11322E+08
-.11297E+08
-.11349E+08
-.11453E+08
-.11376E+08
-.11498E+08
-.11528E+08
-.11183E+08
-.11222E+08
-.11137E+08
-.11181E+08
-.11180E+08
-.11134E+08
-.11151E+08
-.11066E+08
-.11170E+08
-.11124E+08
-.11191E+08
-.11098E+08
-.11518E+08
-.10803E+08
</weights>
</event>
<event>
      6  10001 -1.11453E+07  8.94427E-01 -1.00000E+00  1.75599E-01
      21    -1     0     0   502   501  0.000000000E+00  0.000000000E+00  1.055738906E-02  1.055738906E-02  0.000000000E+00  0.00000E+00  9.000E+00
       2    -1     0     0   501     0  0.000000000E+00  0.000000000E+00 -2.587574135E+02  2.587574135E+02  0.000000000E+00  0.00000E+00  9.000E+00
      23     2     1     2     0     0 -3.057848256E-01  1.234691162E-01 -2.500312277E+02  2.500461060E+02  2.707681494E+00  0.00000E+00  9.000E+00
      11     1     3     3     0     0  3.080173533E-01  1.327283890E+00 -1.381205234E+02  1.381272440E+02  5.110000000E-04  0.00000E+00  9.000E+00
     -11     1     3     3     0     0 -6.138021789E-01 -1.203814774E+00 -1.119107044E+02  1.119188620E+02  5.110000000E-04  0.00000E+00  9.000E+00
       2     1     1     2   502     0  3.057848256E-01 -1.234691162E-01 -8.715628360E+00  8.721864863E+00  0.000000000E+00  0.00000E+00  9.000E+00
#rwgt            1          17  -14072358.000143470                3     6916567           0
<weights>
-.11145E+08
-.11550E+08
-.10610E+08
-.14037E+08
-.85013E+07
-.91702E+07
-.13910E+08
-.11127E+08
-.11162E+08
-.11172E+08
-.11165E+08
-.11070E+08
-.11238E+08
-.11167E+08
-.11165E+08
-.11328E+08
-.10865E+08
-.11299E+08
-.10879E+08
-.10847E+08
-.11316E+08
-.11103E+08
-.11150E+08
-.11148E+08
-.11091E+08
-.11177E+08
-.11117E+08
-.10957E+08
-.11302E+08
-.11093E+08
-.11151E+08
-.11042E+08
-.11242E+08
-.11299E+08
-.10944E+08
-.11131E+08
-.11156E+08
-.11170E+08
-.11122E+08
-.11185E+08
-.11107E+08
-.11156E+08
-.11133E+08
-.11120E+08
-.11169E+08
</weights>
</event>
<event>
      7  10001  1.11453E+07  1.90388E+00 -1.00000E+00  3.63359E-01
       2    -1     0     0   501     0  0.000000000E+00  0.000000000E+00  3.127370691E+01  3.127370691E+01  0.000000000E+00  0.00000E+00  9.000E+00
      21    -1     0     0   502   511  0.000000000E+00  0.000000000E+00 -2.116745300E+00  2.116745300E+00  0.000000000E+00  0.00000E+00  9.000E+00
      23     2     1     2     0     0  8.618160602E-01 -1.344037743E+00  1.026327013E+01  1.045408708E+01  1.184929756E+00  0.00000E+00  9.000E+00
      11     1     3     3     0     0  9.759984685E-01 -4.492796126E-01  5.007172238E+00  5.121152142E+00  5.110000000E-04  0.00000E+00  9.000E+00
     -11     1     3     3     0     0 -1.141824083E-01 -8.947581302E-01  5.256097893E+00  5.332934938E+00  5.110000000E-04  0.00000E+00  9.000E+00
       2     1     1     2   502     0  3.809843260E-01 -9.825987583E-02  2.046440345E+01  2.046818537E+01  0.000000000E+00  0.00000E+00  9.000E+00
      21     1     1     2   501   511 -1.242800386E+00  1.442297619E+00 -1.570711968E+00  2.468179756E+00  7.884953353E-08  0.00000E+00  9.000E+00
#rwgt            1          24   253575.61392367695                3     6917391           0
<weights>
0.11145E+08
0.13519E+08
0.86806E+07
0.13382E+08
0.87876E+07
0.11157E+08
0.10861E+08
0.11151E+08
0.11142E+08
0.10779E+08
0.10747E+08
0.10945E+08
0.10968E+08
0.10788E+08
0.10760E+08
0.11232E+08
0.11246E+08
0.11525E+08
0.11585E+08
0.11568E+08
0.11497E+08
0.11580E+08
0.11590E+08
0.11509E+08
0.11333E+08
0.11302E+08
0.11484E+08
0.11502E+08
0.11431E+08
0.11565E+08
0.11592E+08
0.11205E+08
0.11220E+08
0.11133E+08
0.11190E+08
0.11190E+08
0.11123E+08
0.11213E+08
0.11003E+08
0.11187E+08
0.11109E+08
0.11197E+08
0.11091E+08
0.11573E+08
0.10755E+08
</weights>
</event>
<event>
      7  10001  1.11453E+07  1.72941E+00 -1.00000E+00  3.83261E-01
       2    -1     0     0   501     0  0.000000000E+00  0.000000000E+00  2.623495641E+01  2.623495641E+01  0.000000000E+00  0.00000E+00  9.000E+00
      21    -1     0     0   511   501  0.000000000E+00  0.000000000E+00 -1.534007924E+01  1.534007924E+01  0.000000000E+00  0.00000E+00  9.000E+00
      23     2     1     2     0     0  8.755895987E-01 -3.652311984E-01  2.428710221E+00  3.076286392E+00  1.632437949E+00  0.00000E+00  9.000E+00
      11     1     3     3     0     0  1.838409334E-01  2.036890909E-01  2.106726285E+00  2.124519389E+00  5.110000000E-04  0.00000E+00  9.000E+00
     -11     1     3     3     0     0  6.917486653E-01 -5.689202893E-01  3.219839358E-01  9.517670028E-01  5.110000000E-04  0.00000E+00  9.000E+00
       2     1     1     2   502     0 -1.411477642E+00 -1.279059237E+00  2.339382605E+01  2.347124536E+01  0.000000000E+00  0.00000E+00  9.000E+00
      21     1     1     2   511   502  5.358880434E-01  1.644290436E+00 -1.492765910E+01  1.502750389E+01  0.000000000E+00  0.00000E+00  9.000E+00
#rwgt            1          24   382368.83115133346                3     6952398           0
<weights>
0.11145E+08
0.12878E+08
0.92297E+07
0.12361E+08
0.95195E+07
0.11386E+08
0.10508E+08
0.11171E+08
0.11117E+08
0.10722E+08
0.10679E+08
0.10917E+08
0.10937E+08
0.10723E+08
0.10693E+08
0.11244E+08
0.11277E+08
0.11597E+08
0.11653E+08
0.11641E+08
0.11563E+08
0.11657E+08
0.11676E+08
0.11522E+08
0.11389E+08
0.11360E+08
0.11355E+08
0.11578E+08
0.11472E+08
0.11642E+08
0.11671E+08
0.11220E+08
0.11227E+08
0.11129E+08
0.11200E+08
0.11209E+08
0.11106E+08
0.11242E+08
0.10942E+08
0.11206E+08
0.11093E+08
0.11202E+08
0.11087E+08
0.11646E+08
0.10691E+08
</weights>
</event>
<event>
      7  10001  1.11453E+07  1.24807E+00 -1.00000E+00  4.83723E-01
       3    -1     0     0   501     0  0.000000000E+00  0.000000000E+00  1.833913441E+00  1.833913441E+00  0.000000000E+00  0.00000E+00  9.000E+00
      21    -1     0     0   502   501  0.000000000E+00  0.000000000E+00 -1.408930854E+00  1.408930854E+00  0.000000000E+00  0.00000E+00  9.000E+00
      23     2     1     2     0     0  3.377062774E-01 -2.699724699E-01  1.792010979E-01  1.886389916E+00  1.827408881E+00  0.00000E+00  9.000E+00
      11     1     3     3     0     0 -9.863841143E-02 -8.953817587E-01  5.319847748E-01  1.046157776E+00  5.110000000E-04  0.00000E+00  9.000E+00
     -11     1     3     3     0     0  4.363446888E-01  6.254092888E-01 -3.527836769E-01  8.402321404E-01  5.110000000E-04  0.00000E+00  9.000E+00
       3     1     1     2   511     0 -3.902879023E-01  4.300513513E-02 -4.649183180E-01  6.085418069E-01  0.000000000E+00  0.00000E+00  9.000E+00
      21     1     1     2   502   511  5.258162492E-02  2.269673348E-01  7.106998072E-01  7.479125713E-01  2.356080458E-08  0.00000E+00  9.000E+00
#rwgt            2         278   3516073.1727997442                3     7023406           0
<weights>
0.11145E+08
0.11717E+08
0.10267E+08
0.14241E+08
0.82263E+07
0.91702E+07
0.13910E+08
0.11199E+08
0.11089E+08
0.10856E+08
0.10863E+08
0.10971E+08
0.11038E+08
0.10880E+08
0.10871E+08
0.11224E+08
0.11183E+08
0.11420E+08
0.11431E+08
0.11427E+08
0.11399E+08
0.11444E+08
0.11469E+08
0.11311E+08
0.11339E+08
0.11289E+08
0.11153E+08
0.11389E+08
0.11322E+08
0.11416E+08
0.11456E+08
0.11169E+08
0.11214E+08
0.11139E+08
0.11170E+08
0.11233E+08
0.11073E+08
0.11073E+08
0.11145E+08
0.11151E+08
0.11141E+08
0.11174E+08
0.11115E+08
0.11456E+08
0.10857E+08
</weights>
</event>
<event>
      7  10001  1.11453E+07  1.55075E+00 -1.00000E+00  4.08749E-01
       2    -1     0     0   501     0  0.000000000E+00  0.000000000E+00  2.177114300E-01  2.177114300E-01  0.000000000E+00  0.00000E+00  9.000E+00
      21    -1     0     0   502   501  0.000000000E+00  0.000000000E+00 -1.055831402E+01  1.055831402E+01  0.000000000E+00  0.00000E+00  9.000E+00
      23     2     1     2     0     0 -2.460953568E-01  4.841088990E-01 -3.866207454E+00  4.166350351E+00  1.454644566E+00  0.00000E+00  9.000E+00
      11     1     3     3     0     0  5.482604421E-01  4.225959518E-01 -1.218878752E+00  1.401728406E+00  5.110000000E-04  0.00000E+00  9.000E+00
     -11     1     3     3     0     0 -7.943557990E-01  6.151294718E-02 -2.647328702E+00  2.764621944E+00  5.110000000E-04  0.00000E+00  9.000E+00
       2     1     1     2   512     0  4.684099128E-01 -4.879639725E-02 -9.173479923E-01  1.031172281E+00  0.000000000E+00  0.00000E+00  9.000E+00
      21     1     1     2   502   512 -2.223145560E-01 -4.353125017E-01 -5.557047139E+00  5.578502813E+00  5.960464478E-08  0.00000E+00  9.000E+00
#rwgt            2         248   6295726.3337868499                3     7025994           0
<weights>
0.11145E+08
0.11340E+08
0.10721E+08
0.13782E+08
0.85899E+07
0.91702E+07
0.13910E+08
0.11211E+08
0.11077E+08
0.10899E+08
0.10929E+08
0.10987E+08
0.11078E+08
0.10932E+08
0.10935E+08
0.11212E+08
0.11157E+08
0.11355E+08
0.11361E+08
0.11358E+08
0.11339E+08
0.11364E+08
0.11402E+08
0.11228E+08
0.11337E+08
0.11289E+08
0.11078E+08
0.11326E+08
0.11257E+08
0.11329E+08
0.11376E+08
0.11145E+08
0.11214E+08
0.11144E+08
0.11157E+08
0.11253E+08
0.11051E+08
0.10987E+08
0.11232E+08
0.11130E+08
0.11160E+08
0.11160E+08
0.11130E+08
0.11389E+08
0.10915E+08
</weights>
</event>
<event>
      7  10001  1.11453E+07  8.94427E-01 -1.00000E+00  6.07649E-01
       2    -1     0     0   502     0  0.000000000E+00  0.000000000E+00  2.606776620E+01  2.606776620E+01  0.000000000E+00  0.00000E+00  9.000E+00
      -3    -1     0     0     0   502  0.000000000E+00  0.000000000E+00 -2.680679665E-01  2.680679665E-01  0.000000000E+00  0.00000E+00  9.000E+00
      23     2     1     2     0     0  1.502351500E-01  1.034806115E+00  2.183241158E+01  2.188073917E+01  1.009532839E+00  0.00000E+00  9.000E+00
      11     1     3     3     0     0  1.520169787E-01  2.885476743E-01  1.518723807E+00  1.553348379E+00  5.110000000E-04  0.00000E+00  9.000E+00
     -11     1     3     3     0     0 -1.781828751E-03  7.462584404E-01  2.031368778E+01  2.032739079E+01  5.110000000E-04  0.00000E+00  9.000E+00
      -3     1     1     2     0   501  5.736487178E-01 -9.314667135E-01  1.350017753E+00  1.737599212E+00  0.000000000E+00  0.00000E+00  9.000E+00
       2     1     1     2   501     0 -7.238838678E-01 -1.033394012E-01  2.617268901E+00  2.717495794E+00  0.000000000E+00  0.00000E+00  9.000E+00
#rwgt            2         235   30879.685571815091                3     7027936           0
<weights>
0.11145E+08
0.11404E+08
0.10685E+08
0.13861E+08
0.85618E+07
0.91702E+07
0.13910E+08
0.11184E+08
0.11103E+08
0.10813E+08
0.10805E+08
0.10981E+08
0.10974E+08
0.10829E+08
0.10814E+08
0.11215E+08
0.11208E+08
0.11373E+08
0.11766E+08
0.11694E+08
0.11362E+08
0.11506E+08
0.11549E+08
0.11885E+08
0.11160E+08
0.11041E+08
0.13159E+08
0.11363E+08
0.11520E+08
0.11486E+08
0.11538E+08
0.11203E+08
0.11202E+08
0.11140E+08
0.11177E+08
0.11221E+08
0.11087E+08
0.11154E+08
0.11061E+08
0.11174E+08
0.11120E+08
0.11192E+08
0.11096E+08
0.11518E+08
0.10803E+08
</weights>
</event>
<event>
      6  10001 -1.11453E+07  8.94427E-01 -1.00000E+00  3.08690E-01
       1    -1     0     0   501     0  0.000000000E+00  0.000000000E+00  2.563592424E+02  2.563592424E+02  0.000000000E+00  0.00000E+00  9.000E+00
      21    -1     0     0   502   501  0.000000000E+00  0.000000000E+00 -1.673493787E-02  1.673493787E-02  0.000000000E+00  0.00000E+00  9.000E+00
      23     2     1     2     0     0 -2.540896447E-01  1.655669736E-01  2.548398574E+02  2.548430288E+02  1.234682820E+00  0.00000E+00  9.000E+00
      11     1     3     3     0     0 -6.807077370E-01 -1.112089745E-01  1.023819566E+02  1.023842799E+02  5.110000000E-04  0.00000E+00  9.000E+00
     -11     1     3     3     0     0  4.266180923E-01  2.767759481E-01  1.524579008E+02  1.524587489E+02  5.110000000E-04  0.00000E+00  9.000E+00
       1     1     1     2   502     0  2.540896447E-01 -1.655669736E-01  1.502650126E+00  1.532948587E+00  0.000000000E+00  0.00000E+00  9.000E+00
#rwgt            1          22  -10384052.463824987                3     7028548           0
<weights>
-.11145E+08
-.11119E+08
-.11137E+08
-.13521E+08
-.89237E+07
-.91658E+07
-.13909E+08
-.11186E+08
-.11104E+08
-.10851E+08
-.10857E+08
-.10973E+08
-.11029E+08
-.10874E+08
-.10865E+08
-.11222E+08
-.11187E+08
-.11420E+08
-.11452E+08
-.11444E+08
-.11400E+08
-.11449E+08
-.11478E+08
-.11347E+08
-.11327E+08
-.11273E+08
-.11261E+08
-.11388E+08
-.11335E+08
-.11422E+08
-.11463E+08
-.11169E+08
-.11216E+08
-.11142E+08
-.11168E+08
-.11220E+08
-.11088E+08
-.11075E+08
-.11142E+08
-.11152E+08
-.11140E+08
-.11178E+08
-.11111E+08
-.11462E+08
-.10852E+08
</weights>
</event>
<event>
      7  10001  1.11453E+07  5.06028E+00 -1.00000E+00  2.36019E-01
       2    -1     0     0   501     0  0.000000000E+00  0.000000000E+00  3.198640250E+02  3.198640250E+02  0.000000000E+00  0.00000E+00  9.000E+00
      21    -1     0     0   502   501  0.000000000E+00  0.000000000E+00 -3.922848311E-02  3.922848311E-02  0.000000000E+00  0.00000E+00  9.000E+00
      23     2     1     2     0     0  2.558903815E-01  5.225606706E-01  2.948391027E+02  2.948413747E+02  1.000586203E+00  0.00000E+00  9.000E+00
      11     1     3     3     0     0 -2.840641697E-01 -2.634722836E-02  1.461439821E+02  1.461442605E+02  5.110000000E-04  0.00000E+00  9.000E+00
     -11     1     3     3     0     0  5.399545512E-01  5.489078990E-01  1.486951206E+02  1.486971141E+02  5.110000000E-04  0.00000E+00  9.000E+00
       2     1     1     2   511     0  4.220328005E-01 -1.371871885E-01  2.076567475E+01  2.077041598E+01  0.000000000E+00  0.00000E+00  9.000E+00
      21     1     1     2   502   511 -6.779231820E-01 -3.853734822E-01  4.220019086E+00  4.291462880E+00  3.576278687E-07  0.00000E+00  9.000E+00
#rwgt            2         248   2154555.9365542526                3     7029305           0
<weights>
0.11148E+08
0.10964E+08
0.11068E+08
0.13370E+08
0.88703E+07
0.91411E+07
0.13910E+08
0.11171E+08
0.11126E+08
0.10818E+08
0.10804E+08
0.10961E+08
0.11002E+08
0.10834E+08
0.10815E+08
0.11229E+08
0.11219E+08
0.11476E+08
0.11520E+08
0.11507E+08
0.11451E+08
0.11518E+08
0.11535E+08
0.11431E+08
0.11332E+08
0.11292E+08
0.11375E+08
0.11449E+08
0.11385E+08
0.11497E+08
0.11530E+08
0.11190E+08
0.11220E+08
0.11139E+08
0.11182E+08
0.11208E+08
0.11107E+08
0.11149E+08
0.11072E+08
0.11172E+08
0.11127E+08
0.11189E+08
0.11104E+08
0.11520E+08
0.10806E+08
</weights>
</event>
<event>
      6  10001 -1.11453E+07  8.94427E-01 -1.00000E+00  4.15098E-01
       2    -1     0     0   501     0  0.000000000E+00  0.000000000E+00  1.008209272E+02  1.008209272E+02  0.000000000E+00  0.00000E+00  9.000E+00
      -2    -1     0     0     0   502  0.000000000E+00  0.000000000E+00 -1.650092255E-02  1.650092255E-02  0.000000000E+00  0.00000E+00  9.000E+00
      23     2     1     2     0     0  2.434639057E-01  8.592666474E-02  9.946956482E+01  9.947782775E+01  1.255878296E+00  0.00000E+00  9.000E+00
      11     1     3     3     0     0  5.918106081E-02  2.909845706E-01  9.459913520E+01  9.459960124E+01  5.110000000E-04  0.00000E+00  9.000E+00
     -11     1     3     3     0     0  1.842828449E-01 -2.050579059E-01  4.870429620E+00  4.878226507E+00  5.110000000E-04  0.00000E+00  9.000E+00
      21     1     1     2   501   502 -2.434639057E-01 -8.592666474E-02  1.334861506E+00  1.359600422E+00  9.064022497E-08  0.00000E+00  9.000E+00
#rwgt            1          23  -952490.31378903030                3     7030962           0
<weights>
-.11145E+08
-.12612E+08
-.95106E+07
-.15338E+08
-.76206E+07
-.91651E+07
-.13909E+08
-.11139E+08
-.11165E+08
-.10818E+08
-.10802E+08
-.10962E+08
-.10997E+08
-.10833E+08
-.10813E+08
-.11222E+08
-.11224E+08
-.11474E+08
-.11512E+08
-.11499E+08
-.11451E+08
-.11515E+08
-.11530E+08
-.11428E+08
-.11324E+08
-.11296E+08
-.11342E+08
-.11450E+08
-.11375E+08
-.11495E+08
-.11525E+08
-.11183E+08
-.11221E+08
-.11137E+08
-.11180E+08
-.11185E+08
-.11128E+08
-.11148E+08
-.11069E+08
-.11169E+08
-.11125E+08
-.11190E+08
-.11099E+08
-.11516E+08
-.10805E+08
</weights>
</event>
<event>
      6  10001  1.11453E+07  8.94427E-01 -1.00000E+00  6.07185E-01
      21    -1     0     0   502   501  0.000000000E+00  0.000000000E+00  2.042638452E+00  2.042638452E+00  0.000000000E+00  0.00000E+00  9.000E+00
       4    -1     0     0   501     0  0.000000000E+00  0.000000000E+00 -1.163355549E+01  1.163355549E+01  0.000000000E+00  0.00000E+00  9.000E+00
      23     2     1     2     0     0  1.605694802E-01 -3.155715829E-01 -1.061214691E+01  1.259532466E+01  6.774892862E+00  0.00000E+00  9.000E+00
      11     1     3     3     0     0 -1.575178620E+00  1.775409749E+00 -9.470026881E-01  2.555402476E+00  5.110000000E-04  0.00000E+00  9.000E+00
     -11     1     3     3     0     0  1.735748100E+00 -2.090981332E+00 -9.665144218E+00  1.003992218E+01  5.110000000E-04  0.00000E+00  9.000E+00
       4     1     1     2   502     0 -1.605694802E-01  3.155715829E-01  1.021229865E+00  1.080869289E+00  0.000000000E+00  0.00000E+00  9.000E+00
#rwgt            1          19   1016235.5588539295                3     7031728           0
<weights>
0.11132E+08
0.16182E+08
0.61928E+07
0.13374E+08
0.88090E+07
0.13377E+08
0.76888E+07
0.11255E+08
0.11004E+08
0.10544E+08
0.10546E+08
0.10802E+08
0.10900E+08
0.10557E+08
0.10554E+08
0.11239E+08
0.11337E+08
0.11714E+08
0.11784E+08
0.11784E+08
0.11669E+08
0.11764E+08
0.11858E+08
0.11419E+08
0.11624E+08
0.11621E+08
0.10945E+08
0.11727E+08
0.11448E+08
0.11719E+08
0.11789E+08
0.11190E+08
0.11269E+08
0.11117E+08
0.11186E+08
0.11348E+08
0.10947E+08
0.11020E+08
0.11004E+08
0.11201E+08
0.11075E+08
0.11168E+08
0.11096E+08
0.11785E+08
0.10536E+08
</weights>
</event>
<event>
      6  10001 -1.11453E+07  8.94427E-01 -1.00000E+00  1.54228E-01
       2    -1     0     0   501     0  0.000000000E+00  0.000000000E+00  1.126789097E+02  1.126789097E+02  0.000000000E+00  0.00000E+00  9.000E+00
      21    -1     0     0   502   501  0.000000000E+00  0.000000000E+00 -1.644286805E-02  1.644286805E-02  0.000000000E+00  0.00000E+00  9.000E+00
      23     2     1     2     0     0  2.631633209E-01 -2.139421792E-01  9.934969389E+01  9.937826018E+01  2.358366970E+00  0.00000E+00  9.000E+00
      11     1     3     3     0     0  1.046879770E+00  6.363311251E-01  5.265934051E+01  5.267358938E+01  5.110000000E-04  0.00000E+00  9.000E+00
     -11     1     3     3     0     0 -7.837164496E-01 -8.502733043E-01  4.669035338E+01  4.670467080E+01  5.110000000E-04  0.00000E+00  9.000E+00
       2     1     1     2   502     0 -2.631633209E-01  2.139421792E-01  1.331277299E+01  1.331709243E+01  0.000000000E+00  0.00000E+00  9.000E+00
#rwgt            1          24  -14568876.520613357                3     7050839           0
<weights>
-.11145E+08
-.12415E+08
-.96852E+07
-.15097E+08
-.77606E+07
-.91656E+07
-.13909E+08
-.11178E+08
-.11114E+08
-.10847E+08
-.10846E+08
-.10971E+08
-.11024E+08
-.10869E+08
-.10856E+08
-.11223E+08
-.11193E+08
-.11430E+08
-.11463E+08
-.11452E+08
-.11409E+08
-.11463E+08
-.11483E+08
-.11372E+08
-.11320E+08
-.11273E+08
-.11310E+08
-.11400E+08
-.11345E+08
-.11438E+08
-.11475E+08
-.11174E+08
-.11215E+08
-.11140E+08
-.11172E+08
-.11213E+08
-.11095E+08
-.11101E+08
-.11125E+08
-.11156E+08
-.11137E+08
-.11180E+08
-.11109E+08
-.11472E+08
-.10843E+08
</weights>
</event>
<event>
      6  10001 -1.11453E+07  8.94427E-01 -1.00000E+00  5.58063E-01
      21    -1     0     0   502   501  0.000000000E+00  0.000000000E+00  2.218014289E-02  2.218014289E-02  0.000000000E+00  0.00000E+00  9.000E+00
      -3    -1     0     0     0   502  0.000000000E+00  0.000000000E+00 -3.798624149E+01  3.798624149E+01  0.000000000E+00  0.00000E+00  9.000E+00
      23     2     1     2     0     0  4.302437558E-01 -4.342195658E-01 -2.783112248E+01  2.785706181E+01  1.034822425E+00  0.00000E+00  9.000E+00
      11     1     3     3     0     0  5.324904473E-01 -2.947680199E-01 -2.705770300E+01  2.706454740E+01  5.110000000E-04  0.00000E+00  9.000E+00
     -11     1     3     3     0     0 -1.022466915E-01 -1.394515459E-01 -7.734194846E-01  7.925144036E-01  5.110000000E-04  0.00000E+00  9.000E+00
      -3     1     1     2     0   501 -4.302437558E-01  4.342195658E-01 -1.013293886E+01  1.015135983E+01  0.000000000E+00  0.00000E+00  9.000E+00
#rwgt            1          13  -1150664.0884038808                3     7053292           0
<weights>
-.11155E+08
-.12848E+08
-.91701E+07
-.15806E+08
-.73554E+07
-.90517E+07
-.13909E+08
-.11202E+08
-.11107E+08
-.10945E+08
-.11091E+08
-.11242E+08
-.10880E+08
-.11035E+08
-.11043E+08
-.11909E+08
-.10119E+08
-.11350E+08
-.11082E+08
-.11129E+08
-.11273E+08
-.11215E+08
-.11328E+08
-.10967E+08
-.11292E+08
-.99917E+07
-.11672E+08
-.10554E+08
-.12018E+08
-.11137E+08
-.11310E+08
-.11197E+08
-.11143E+08
-.11223E+08
-.11094E+08
-.11276E+08
-.11045E+08
-.10908E+08
-.11394E+08
-.11125E+08
-.11174E+08
-.11236E+08
-.11068E+08
-.11287E+08
-.11021E+08
</weights>
</event>
<event>
      7  10001  1.11453E+07  7.31836E+00 -1.00000E+00  2.12063E-01
      21    -1     0     0   502   501  0.000000000E+00  0.000000000E+00  1.437302991E-01  1.437302991E-01  0.000000000E+00  0.00000E+00  9.000E+00
       2    -1     0     0   501     0  0.000000000E+00  0.000000000E+00 -3.477718977E+02  3.477718977E+02  0.000000000E+00  0.00000E+00  9.000E+00
      23     2     1     2     0     0  3.050916721E-01 -7.111900321E-01 -8.608222294E+01  8.625090243E+01  5.335746596E+00  0.00000E+00  9.000E+00
      11     1     3     3     0     0 -7.120246638E-01  2.098286523E+00 -2.592397274E+01  2.601849628E+01  5.110000000E-04  0.00000E+00  9.000E+00
     -11     1     3     3     0     0  1.017116336E+00 -2.809476556E+00 -6.015825020E+01  6.023240616E+01  5.110000000E-04  0.00000E+00  9.000E+00
       2     1     1     2   511     0 -4.000722449E+00  1.123753722E+00 -1.443333714E+02  1.443931810E+02  0.000000000E+00  0.00000E+00  9.000E+00
      21     1     1     2   502   511  3.695630777E+00 -4.125636897E-01 -1.172125730E+02  1.172715446E+02  1.348699152E-06  0.00000E+00  9.000E+00
#rwgt            1          17   774196.80570968240                3     7054882           0
<weights>
0.11145E+08
0.94698E+07
0.14061E+08
0.93933E+07
0.12822E+08
0.10682E+08
0.11590E+08
0.11126E+08
0.11163E+08
0.11171E+08
0.11161E+08
0.11040E+08
0.11272E+08
0.11164E+08
0.11161E+08
0.11357E+08
0.10826E+08
0.11364E+08
0.10802E+08
0.10759E+08
0.11387E+08
0.11102E+08
0.11160E+08
0.11116E+08
0.11125E+08
0.11219E+08
0.11092E+08
0.10885E+08
0.11396E+08
0.11083E+08
0.11165E+08
0.11017E+08
0.11269E+08
0.11365E+08
0.10863E+08
0.11122E+08
0.11165E+08
0.11166E+08
0.11127E+08
0.11208E+08
0.11088E+08
0.11147E+08
0.11143E+08
0.11124E+08
0.11166E+08
</weights>
</event>
<event>
      6  10001  1.11453E+07  8.94427E-01 -1.00000E+00  6.06010E-01
      21    -1     0     0   502   501  0.000000000E+00  0.000000000E+00  3.335036981E+01  3.335036981E+01  0.000000000E+00  0.00000E+00  9.000E+00
       4    -1     0     0   501     0  0.000000000E+00  0.000000000E+00 -1.619529071E-01  1.619529071E-01  0.000000000E+00  0.00000E+00  9.000E+00
      23     2     1     2     0     0  5.213421882E-01  2.129304298E-02  2.597394994E+00  2.916851280E+00  1.220372714E+00  0.00000E+00  9.000E+00
      11     1     3     3     0     0 -2.562795631E-01 -7.234300949E-02  1.720938554E+00  1.741419677E+00  5.110000000E-04  0.00000E+00  9.000E+00
     -11     1     3     3     0     0  7.776217513E-01  9.363605247E-02  8.764564406E-01  1.175431602E+00  5.110000000E-04  0.00000E+00  9.000E+00
       4     1     1     2   502     0 -5.213421882E-01 -2.129304298E-02  3.059102190E+01  3.059547143E+01  0.000000000E+00  0.00000E+00  9.000E+00
#rwgt            1          19   1798245.9870623928                3     7068529           0
<weights>
0.11145E+08
0.12841E+08
0.93757E+07
0.12853E+08
0.92723E+07
0.11015E+08
0.11077E+08
0.11172E+08
0.11116E+08
0.10764E+08
0.10727E+08
0.10934E+08
0.10965E+08
0.10771E+08
0.10741E+08
0.11240E+08
0.11251E+08
0.11553E+08
0.11585E+08
0.11575E+08
0.11521E+08
0.11604E+08
0.11611E+08
0.11477E+08
0.11362E+08
0.11334E+08
0.11317E+08
0.11531E+08
0.11436E+08
0.11589E+08
0.11616E+08
0.11213E+08
0.11218E+08
0.11128E+08
0.11197E+08
0.11209E+08
0.11103E+08
0.11231E+08
0.10981E+08
0.11193E+08
0.11105E+08
0.11195E+08
0.11094E+08
0.11594E+08
0.10737E+08
</weights>
</event>
<event>
      6  10001 -1.11453E+07  8.94427E-01 -1.00000E+00  6.63125E-01
      -3    -1     0     0     0   502  0.000000000E+00  0.000000000E+00  1.018557661E+02  1.018557661E+02  0.000000000E+00  0.00000E+00  9.000E+00
      21    -1     0     0   502   501  0.000000000E+00  0.000000000E+00 -1.665761819E-02  1.665761819E-02  0.000000000E+00  0.00000E+00  9.000E+00
      23     2     1     2     0     0  3.974911642E-01 -1.645693997E-01  9.380212027E+01  9.382392934E+01  1.976579491E+00  0.00000E+00  9.000E+00
      11     1     3     3     0     0  6.307745837E-01  4.135792459E-01  8.324481565E+01  8.324823276E+01  5.110000000E-04  0.00000E+00  9.000E+00
     -11     1     3     3     0     0 -2.332834195E-01 -5.781486456E-01  1.055730462E+01  1.057569658E+01  5.110000000E-04  0.00000E+00  9.000E+00
      -3     1     1     2     0   501 -3.974911642E-01  1.645693997E-01  8.036988240E+00  8.048494411E+00  0.000000000E+00  0.00000E+00  9.000E+00
#rwgt            1           5  -852768.84379177075                3     7079007           0
<weights>
-.11145E+08
-.12274E+08
-.98447E+07
-.14925E+08
-.78884E+07
-.91655E+07
-.13909E+08
-.11178E+08
-.11113E+08
-.10835E+08
-.10831E+08
-.10966E+08
-.11016E+08
-.10855E+08
-.10841E+08
-.11224E+08
-.11201E+08
-.11445E+08
-.11482E+08
-.11471E+08
-.11423E+08
-.11480E+08
-.11503E+08
-.11383E+08
-.11328E+08
-.11283E+08
-.11308E+08
-.11417E+08
-.11356E+08
-.11456E+08
-.11493E+08
-.11178E+08
-.11216E+08
-.11139E+08
-.11174E+08
-.11214E+08
-.11095E+08
-.11110E+08
-.11106E+08
-.11161E+08
-.11132E+08
-.11182E+08
-.11107E+08
-.11488E+08
-.10830E+08
</weights>
</event>
<event>
      6  10001 -1.11453E+07  8.94427E-01 -1.00000E+00  1.77399E-01
      21    -1     0     0   502   501  0.000000000E+00  0.000000000E+00  8.704902100E-03  8.704902100E-03  0.000000000E+00  0.00000E+00  9.000E+00
       2    -1     0     0   501     0  0.000000000E+00  0.000000000E+00 -8.621086808E+01  8.621086808E+01  0.000000000E+00  0.00000E+00  9.000E+00
      23     2     1     2     0     0  3.185242462E-01  2.901521007E-01 -6.792424171E+01  6.793657380E+01  1.220574353E+00  0.00000E+00  9.000E+00
      11     1     3     3     0     0 -5.500277580E-02  9.413977262E-02 -5.342700204E-01  5.452818702E-01  5.110000000E-04  0.00000E+00  9.000E+00
     -11     1     3     3     0     0  3.735270220E-01  1.960123280E-01 -6.738997169E+01  6.739129193E+01  5.110000000E-04  0.00000E+00  9.000E+00
       2     1     1     2   502     0 -3.185242462E-01 -2.901521007E-01 -1.827792146E+01  1.828299918E+01  0.000000000E+00  0.00000E+00  9.000E+00
#rwgt            1          17  -9898475.3087588977                3     7080553           0
<weights>
-.11145E+08
-.12235E+08
-.99644E+07
-.14870E+08
-.79840E+07
-.91702E+07
-.13910E+08
-.11161E+08
-.11129E+08
-.11137E+08
-.11159E+08
-.11162E+08
-.11103E+08
-.11158E+08
-.11159E+08
-.11160E+08
-.11088E+08
-.11073E+08
-.11190E+08
-.11198E+08
-.11068E+08
-.11127E+08
-.11120E+08
-.11233E+08
-.11032E+08
-.11068E+08
-.11178E+08
-.11234E+08
-.10960E+08
-.11135E+08
-.11115E+08
-.11131E+08
-.11151E+08
-.11083E+08
-.11223E+08
-.11132E+08
-.11153E+08
-.11103E+08
-.11198E+08
-.11093E+08
-.11187E+08
-.11197E+08
-.11090E+08
-.11133E+08
-.11152E+08
</weights>
</event>
<event>
      7  10001 -1.11453E+07  1.39116E+00 -1.00000E+00  4.49675E-01
      21    -1     0     0   502   511  0.000000000E+00  0.000000000E+00  6.769666013E+02  6.769666013E+02  0.000000000E+00  0.00000E+00  9.000E+00
      -2    -1     0     0     0   502  0.000000000E+00  0.000000000E+00 -2.491409080E+01  2.491409080E+01  0.000000000E+00  0.00000E+00  9.000E+00
      23     2     1     2     0     0 -7.950697359E-02  5.847921973E-01 -2.370554577E+01  2.380899058E+01  2.137013957E+00  0.00000E+00  9.000E+00
      11     1     3     3     0     0  7.577724304E-01 -2.115005962E-02 -3.704972846E+00  3.781731142E+00  5.110000000E-04  0.00000E+00  9.000E+00
     -11     1     3     3     0     0 -8.372794040E-01  6.059422570E-01 -2.000057293E+01  2.002725943E+01  5.110000000E-04  0.00000E+00  9.000E+00
      -2     1     1     2     0   501 -3.628818018E-01  7.341535003E-01 -1.011081307E+00  1.301134110E+00  0.000000000E+00  0.00000E+00  9.000E+00
      21     1     1     2   501   511  4.423887754E-01 -1.318945698E+00  6.767691375E+02  6.767705674E+02  0.000000000E+00  0.00000E+00  9.000E+00
#rwgt            1          14  -1637341.8970454950                3     7081357           0
<weights>
-.11145E+08
-.73506E+07
-.14757E+08
-.13197E+08
-.92146E+07
-.63694E+07
-.18209E+08
-.11212E+08
-.11080E+08
-.11051E+08
-.11113E+08
-.11039E+08
-.11183E+08
-.11105E+08
-.11117E+08
-.11167E+08
-.11091E+08
-.11174E+08
-.11140E+08
-.11133E+08
-.11176E+08
-.11157E+08
-.11169E+08
-.11115E+08
-.11211E+08
-.11178E+08
-.11100E+08
-.11142E+08
-.11113E+08
-.11118E+08
-.11163E+08
-.11112E+08
-.11184E+08
-.11176E+08
-.11111E+08
-.11255E+08
-.11038E+08
-.10910E+08
-.11405E+08
-.11079E+08
-.11204E+08
-.11148E+08
-.11143E+08
-.11192E+08
-.11089E+08
</weights>
</event>
<event>
      6  10001 -1.11453E+07  8.94427E-01 -1.00000E+00  1.40383E-01
      21    -1     0     0   502   501  0.000000000E+00  0.000000000E+00  5.058114268E+01  5.058114268E+01  0.000000000E+00  0.00000E+00  9.000E+00
       5    -1     0     0   501     0  0.000000000E+00  0.000000000E+00 -1.626862255E-02  1.626862255E-02  0.000000000E+00  0.00000E+00  9.000E+00
      23     2     1     2     0     0 -3.435642810E-01 -1.867043916E-01  4.601112355E+01  4.602690382E+01  1.139951827E+00  0.00000E+00  9.000E+00
      11     1     3     3     0     0 -1.023938332E-02 -2.647147770E-01  4.209830531E+01  4.209913881E+01  5.110000000E-04  0.00000E+00  9.000E+00
     -11     1     3     3     0     0 -3.333248977E-01  7.801038538E-02  3.912818236E+00  3.927765003E+00  5.110000000E-04  0.00000E+00  9.000E+00
       5     1     1     2   502     0  3.435642810E-01  1.867043916E-01  4.553750511E+00  4.570507484E+00  0.000000000E+00  0.00000E+00  9.000E+00
#rwgt            1          20  -64952.871058699580                3     7096389           0
<weights>
-.11145E+08
-.12989E+08
-.90693E+07
-.15803E+08
-.72673E+07
-.91607E+07
-.13909E+08
-.11171E+08
-.11120E+08
-.10816E+08
-.10803E+08
-.10959E+08
-.11001E+08
-.10833E+08
-.10814E+08
-.11227E+08
-.11215E+08
-.11472E+08
-.11514E+08
-.11502E+08
-.11448E+08
-.11513E+08
-.11531E+08
-.11420E+08
-.11332E+08
-.11291E+08
-.11350E+08
-.11446E+08
-.11380E+08
-.11492E+08
-.11526E+08
-.11187E+08
-.11217E+08
-.11137E+08
-.11180E+08
-.11208E+08
-.11102E+08
-.11144E+08
-.11072E+08
-.11169E+08
-.11125E+08
-.11186E+08
-.11102E+08
-.11516E+08
-.10805E+08
</weights>
</event>
<event>
      7  10001  1.11453E+07  3.39464E+00 -1.00000E+00  2.77647E-01
       2    -1     0     0   501     0  0.000000000E+00  0.000000000E+00  3.368641229E-02  3.368641229E-02  0.000000000E+00  0.00000E+00  9.000E+00
      21    -1     0     0   502   501  0.000000000E+00  0.000000000E+00 -1.270557719E+02  1.270557719E+02  0.000000000E+00  0.00000E+00  9.000E+00
      23     2     1     2     0     0 -1.803981184E-02  5.251257752E-01 -1.704474867E+01  1.709394830E+01  1.184706292E+00  0.00000E+00  9.000E+00
      11     1     3     3     0     0  2.131315041E-01  8.271431133E-01 -1.391192108E+01  1.393811820E+01  5.110000000E-04  0.00000E+00  9.000E+00
     -11     1     3     3     0     0 -2.311713159E-01 -3.020173382E-01 -3.132827592E+00  3.155830102E+00  5.110000000E-04  0.00000E+00  9.000E+00
       2     1     1     2   511     0 -4.311613573E-01  1.628286012E-01 -7.124563686E+00  7.139455230E+00  0.000000000E+00  0.00000E+00  9.000E+00
      21     1     1     2   502   511  4.492011692E-01 -6.879543763E-01 -1.028527731E+02  1.028560548E+02  0.000000000E+00  0.00000E+00  9.000E+00
#rwgt            2         248   2735954.1804676941                3     7098427           0
<weights>
0.11145E+08
0.10521E+08
0.11762E+08
0.12787E+08
0.94247E+07
0.91702E+07
0.13910E+08
0.11129E+08
0.11160E+08
0.11255E+08
0.11254E+08
0.11104E+08
0.11312E+08
0.11291E+08
0.11278E+08
0.11133E+08
0.11055E+08
0.11018E+08
0.10942E+08
0.10938E+08
0.11033E+08
0.10999E+08
0.10935E+08
0.11095E+08
0.10995E+08
0.11054E+08
0.11158E+08
0.11025E+08
0.11023E+08
0.10991E+08
0.10987E+08
0.11118E+08
0.11125E+08
0.11136E+08
0.11146E+08
0.11174E+08
0.11114E+08
0.11049E+08
0.11302E+08
0.11039E+08
0.11244E+08
0.11092E+08
0.11202E+08
0.11005E+08
0.11262E+08
</weights>
</event>
<event>
      7  10001  1.11453E+07  3.95808E+00 -1.00000E+00  2.61344E-01
      21    -1     0     0   502   501  0.000000000E+00  0.000000000E+00  8.695090703E-01  8.695090703E-01  0.000000000E+00  0.00000E+00  9.000E+00
       2    -1     0     0   501     0  0.000000000E+00  0.000000000E+00 -8.362201753E+00  8.362201753E+00  0.000000000E+00  0.00000E+00  9.000E+00
      23     2     1     2     0     0 -3.525031084E-01  1.725558956E+00 -2.293442102E+00  3.137760031E+00  1.218133484E+00  0.00000E+00  9.000E+00
      11     1     3     3     0     0 -6.067777315E-01  6.837464908E-01 -4.839441585E-01  1.034355204E+00  5.110000000E-04  0.00000E+00  9.000E+00
     -11     1     3     3     0     0  2.542746231E-01  1.041812465E+00 -1.809497944E+00  2.103404827E+00  5.110000000E-04  0.00000E+00  9.000E+00
       2     1     1     2   512     0 -9.475262716E-01  6.413153224E-02 -1.861256162E+00  2.089543823E+00  0.000000000E+00  0.00000E+00  9.000E+00
      21     1     1     2   502   512  1.300029380E+00 -1.789690488E+00 -3.337994418E+00  4.004406968E+00  8.429369702E-08  0.00000E+00  9.000E+00
#rwgt            1          17   600331.46398773289                3     7098754           0
<weights>
0.11145E+08
0.12883E+08
0.93976E+07
0.12596E+08
0.94308E+07
0.11195E+08
0.10802E+08
0.11121E+08
0.11163E+08
0.10874E+08
0.10868E+08
0.11051E+08
0.10939E+08
0.10886E+08
0.10876E+08
0.11071E+08
0.11405E+08
0.11341E+08
0.11539E+08
0.11538E+08
0.11322E+08
0.11446E+08
0.11454E+08
0.11343E+08
0.11315E+08
0.11356E+08
0.11054E+08
0.11541E+08
0.11101E+08
0.11439E+08
0.11421E+08
0.11160E+08
0.11221E+08
0.11095E+08
0.11245E+08
0.10985E+08
0.11325E+08
0.11078E+08
0.11112E+08
0.11131E+08
0.11152E+08
0.11243E+08
0.11042E+08
0.11443E+08
0.10872E+08
</weights>
</event>
<event>
      7  10001  1.11453E+07  8.01784E+00 -1.00000E+00  2.06845E-01
      21    -1     0     0   511   501  0.000000000E+00  0.000000000E+00  8.191519812E+00  8.191519812E+00  0.000000000E+00  0.00000E+00  9.000E+00
      -2    -1     0     0     0   502  0.000000000E+00  0.000000000E+00 -1.127622653E+01  1.127622653E+01  0.000000000E+00  0.00000E+00  9.000E+00
      23     2     1     2     0     0  1.000255339E-01  4.799797602E-01 -1.601882053E+00  2.393976750E+00  1.710179198E+00  0.00000E+00  9.000E+00
      11     1     3     3     0     0  7.642119119E-01  4.872001173E-01 -1.454249899E+00  1.713542188E+00  5.110000000E-04  0.00000E+00  9.000E+00
     -11     1     3     3     0     0 -6.641863780E-01 -7.220357082E-03 -1.476321539E-01  6.804345613E-01  5.110000000E-04  0.00000E+00  9.000E+00
      -2     1     1     2     0   501  4.631898367E+00 -6.952584932E+00 -3.069827640E+00  8.900379849E+00  0.000000000E+00  0.00000E+00  9.000E+00
      21     1     1     2   511   502 -4.731923901E+00  6.472605172E+00  1.587002972E+00  8.173389747E+00  1.460009660E-07  0.00000E+00  9.000E+00
#rwgt            1          14   659185.22251372202                3     7105642           0
<weights>
0.11145E+08
0.12694E+08
0.95684E+07
0.12777E+08
0.93368E+07
0.10935E+08
0.11201E+08
0.11065E+08
0.11221E+08
0.10832E+08
0.10806E+08
0.10986E+08
0.10956E+08
0.10841E+08
0.10819E+08
0.11131E+08
0.11353E+08
0.11498E+08
0.11451E+08
0.11430E+08
0.11484E+08
0.11505E+08
0.11520E+08
0.11397E+08
0.11315E+08
0.11444E+08
0.11012E+08
0.11501E+08
0.11247E+08
0.11491E+08
0.11500E+08
0.11124E+08
0.11276E+08
0.11177E+08
0.11143E+08
0.10935E+08
0.11381E+08
0.11110E+08
0.11073E+08
0.11166E+08
0.11122E+08
0.11246E+08
0.11038E+08
0.11502E+08
0.10818E+08
</weights>
</event>
<event>
      7  10001  1.11453E+07  4.05988E+00 -1.00000E+00  2.58827E-01
      21    -1     0     0   511   502  0.000000000E+00  0.000000000E+00  8.215676003E+01  8.215676003E+01  0.000000000E+00  0.00000E+00  9.000E+00
       2    -1     0     0   501     0  0.000000000E+00  0.000000000E+00 -8.082418107E+00  8.082418107E+00  0.000000000E+00  0.00000E+00  9.000E+00
      23     2     1     2     0     0  2.312912784E+00 -1.053478543E+00 -2.471818017E+00  3.752912001E+00  1.230886507E+00  0.00000E+00  9.000E+00
      11     1     3     3     0     0  1.194211655E+00 -1.172772843E+00 -1.229130225E+00  2.076607567E+00  5.110000000E-04  0.00000E+00  9.000E+00
     -11     1     3     3     0     0  1.118701129E+00  1.192942993E-01 -1.242687792E+00  1.676304434E+00  5.110000000E-04  0.00000E+00  9.000E+00
      21     1     1     2   501   502 -5.494689249E+00  3.575175156E+00  8.053109850E+01  8.079747096E+01  3.162979880E-06  0.00000E+00  9.000E+00
       2     1     1     2   511     0  3.181776466E+00 -2.521696613E+00 -3.984938560E+00  5.688795181E+00  0.000000000E+00  0.00000E+00  9.000E+00
#rwgt            2         190   2536297.4486430907                3     7108693           0
<weights>
0.11145E+08
0.98056E+07
0.12707E+08
0.11917E+08
0.10182E+08
0.91702E+07
0.13910E+08
0.11161E+08
0.11126E+08
0.10901E+08
0.10914E+08
0.11035E+08
0.11002E+08
0.10923E+08
0.10920E+08
0.11122E+08
0.11299E+08
0.11321E+08
0.11451E+08
0.11450E+08
0.11305E+08
0.11390E+08
0.11408E+08
0.11287E+08
0.11308E+08
0.11314E+08
0.11069E+08
0.11439E+08
0.11142E+08
0.11372E+08
0.11379E+08
0.11151E+08
0.11214E+08
0.11113E+08
0.11211E+08
0.11094E+08
0.11213E+08
0.11033E+08
0.11177E+08
0.11125E+08
0.11160E+08
0.11209E+08
0.11078E+08
0.11399E+08
0.10909E+08
</weights>
</event>
<event>
      6  10001 -1.11453E+07  8.94427E-01 -1.00000E+00  3.82202E-01
      -4    -1     0     0     0   502  0.000000000E+00  0.000000000E+00  1.580184107E+02  1.580184107E+02  0.000000000E+00  0.00000E+00  9.000E+00
      21    -1     0     0   502   501  0.000000000E+00  0.000000000E+00 -1.667667953E-02  1.667667953E-02  0.000000000E+00  0.00000E+00  9.000E+00
      23     2     1     2     0     0 -3.600456510E-01  3.406644432E-01  1.536498639E+02  1.536550807E+02  1.165099759E+00  0.00000E+00  9.000E+00
      11     1     3     3     0     0 -7.295808297E-01  4.391210576E-01  8.857681432E+01  8.858090737E+01  5.110000000E-04  0.00000E+00  9.000E+00
     -11     1     3     3     0     0  3.695351787E-01 -9.845661441E-02  6.507304961E+01  6.507417334E+01  5.110000000E-04  0.00000E+00  9.000E+00
      -4     1     1     2     0   501  3.600456510E-01 -3.406644432E-01  4.351870114E+00  4.380006692E+00  0.000000000E+00  0.00000E+00  9.000E+00
#rwgt            1           3  -1912586.2790785155                3     7108754           0
<weights>
-.11145E+08
-.12610E+08
-.94430E+07
-.15332E+08
-.75665E+07
-.91666E+07
-.13909E+08
-.11172E+08
-.11119E+08
-.10824E+08
-.10814E+08
-.10962E+08
-.11007E+08
-.10841E+08
-.10824E+08
-.11226E+08
-.11210E+08
-.11462E+08
-.11503E+08
-.11491E+08
-.11438E+08
-.11501E+08
-.11520E+08
-.11410E+08
-.11329E+08
-.11287E+08
-.11346E+08
-.11434E+08
-.11371E+08
-.11478E+08
-.11513E+08
-.11183E+08
-.11217E+08
-.11138E+08
-.11178E+08
-.11209E+08
-.11101E+08
-.11131E+08
-.11085E+08
-.11166E+08
-.11128E+08
-.11185E+08
-.11104E+08
-.11505E+08
-.10814E+08
</weights>
</event>
<event>
      7  10001  1.11453E+07  1.75961E+00 -1.00000E+00  3.79501E-01
      21    -1     0     0   502   511  0.000000000E+00  0.000000000E+00  1.966841062E+02  1.966841062E+02  0.000000000E+00  0.00000E+00  9.000E+00
       2    -1     0     0   501     0  0.000000000E+00  0.000000000E+00 -2.461657297E+01  2.461657297E+01  0.000000000E+00  0.00000E+00  9.000E+00
      23     2     1     2     0     0 -9.053117825E-02  4.127221196E-02 -2.441539740E+00  3.130300916E+00  1.956468307E+00  0.00000E+00  9.000E+00
      11     1     3     3     0     0  8.649056858E-01 -6.089739333E-02 -1.728432535E+00  1.933713947E+00  5.110000000E-04  0.00000E+00  9.000E+00
     -11     1     3     3     0     0 -9.554368640E-01  1.021696053E-01 -7.131072049E-01  1.196586970E+00  5.110000000E-04  0.00000E+00  9.000E+00
       2     1     1     2   502     0  1.464341096E+00 -1.140757562E+00 -2.178724375E+01  2.186617509E+01  0.000000000E+00  0.00000E+00  9.000E+00
      21     1     1     2   501   511 -1.373809917E+00  1.099485350E+00  1.962963167E+02  1.963042032E+02  2.697398305E-06  0.00000E+00  9.000E+00
#rwgt            1          17   265242.13071012334                3     7109559           0
<weights>
0.11145E+08
0.12859E+08
0.93298E+07
0.12750E+08
0.93051E+07
0.11094E+08
0.10957E+08
0.11204E+08
0.11084E+08
0.10926E+08
0.10969E+08
0.11088E+08
0.10974E+08
0.10958E+08
0.10968E+08
0.11062E+08
0.11344E+08
0.11204E+08
0.11499E+08
0.11507E+08
0.11187E+08
0.11333E+08
0.11355E+08
0.11271E+08
0.11276E+08
0.11264E+08
0.11089E+08
0.11463E+08
0.11000E+08
0.11317E+08
0.11309E+08
0.11154E+08
0.11193E+08
0.11074E+08
0.11263E+08
0.11084E+08
0.11216E+08
0.10968E+08
0.11263E+08
0.11095E+08
0.11185E+08
0.11228E+08
0.11058E+08
0.11350E+08
0.10952E+08
</weights>
</event>
<event>
      6  10001 -1.11453E+07  8.94427E-01 -1.00000E+00  2.14361E-01
      -2    -1     0     0     0   502  0.000000000E+00  0.000000000E+00  2.506743925E-02  2.506743925E-02  0.000000000E+00  0.00000E+00  9.000E+00
       2    -1     0     0   501     0  0.000000000E+00  0.000000000E+00 -2.902244064E+01  2.902244064E+01  0.000000000E+00  0.00000E+00  9.000E+00
      23     2     1     2     0     0  2.187791514E-01 -1.738572844E-01 -2.447841635E+01  2.451991913E+01  1.398383523E+00  0.00000E+00  9.000E+00
      11     1     3     3     0     0 -1.209180727E-01  1.249563988E-01 -3.871636188E-01  4.244186739E-01  5.110000000E-04  0.00000E+00  9.000E+00
     -11     1     3     3     0     0  3.396972241E-01 -2.988136832E-01 -2.409125273E+01  2.409550046E+01  5.110000000E-04  0.00000E+00  9.000E+00
      21     1     1     2   501   502 -2.187791514E-01  1.738572844E-01 -4.518956852E+00  4.527588950E+00  5.960464478E-08  0.00000E+00  9.000E+00
#rwgt            1           8  -35358375.831717394                3     7118664           0
<weights>
-.11145E+08
-.12932E+08
-.93065E+07
-.15717E+08
-.74569E+07
-.91702E+07
-.13910E+08
-.11198E+08
-.11092E+08
-.11006E+08
-.11050E+08
-.11116E+08
-.11028E+08
-.11039E+08
-.11049E+08
-.11083E+08
-.11261E+08
-.11136E+08
-.11383E+08
-.11392E+08
-.11125E+08
-.11244E+08
-.11253E+08
-.11242E+08
-.11190E+08
-.11189E+08
-.11121E+08
-.11371E+08
-.10970E+08
-.11234E+08
-.11222E+08
-.11145E+08
-.11174E+08
-.11077E+08
-.11249E+08
-.11109E+08
-.11186E+08
-.10989E+08
-.11281E+08
-.11084E+08
-.11194E+08
-.11212E+08
-.11074E+08
-.11260E+08
-.11033E+08
</weights>
</event>
<event>
      7  10001  1.11453E+07  8.94427E-01 -1.00000E+00  6.07649E-01
      -2    -1     0     0     0   501  0.000000000E+00  0.000000000E+00  7.382734391E+00  7.382734391E+00  0.000000000E+00  0.00000E+00  9.000E+00
       4    -1     0     0   501     0  0.000000000E+00  0.000000000E+00 -2.600414934E-01  2.600414934E-01  0.000000000E+00  0.00000E+00  9.000E+00
      23     2     1     2     0     0 -5.315610442E-01  3.554336142E-03  5.085684741E+00  5.228867249E+00  1.092837427E+00  0.00000E+00  9.000E+00
      11     1     3     3     0     0  2.283724623E-01  3.075624422E-01  1.276605204E+00  1.332842731E+00  5.110000000E-04  0.00000E+00  9.000E+00
     -11     1     3     3     0     0 -7.599335065E-01 -3.040081060E-01  3.809079537E+00  3.896024518E+00  5.110000000E-04  0.00000E+00  9.000E+00
       4     1     1     2   502     0  2.350515004E-01 -2.927363227E-02 -9.939330644E-02  2.568758119E-01  0.000000000E+00  0.00000E+00  9.000E+00
      -2     1     1     2     0   502  2.965095438E-01  2.571929613E-02  2.136401463E+00  2.157032824E+00  0.000000000E+00  0.00000E+00  9.000E+00
#rwgt            2         117   186153.14180424251                3     7120872           0
<weights>
0.11145E+08
0.11917E+08
0.10131E+08
0.14484E+08
0.81178E+07
0.91702E+07
0.13910E+08
0.11188E+08
0.11100E+08
0.10807E+08
0.10791E+08
0.10951E+08
0.11000E+08
0.10822E+08
0.10803E+08
0.11233E+08
0.11218E+08
0.11490E+08
0.11511E+08
0.11504E+08
0.11463E+08
0.11528E+08
0.11544E+08
0.11393E+08
0.11354E+08
0.11316E+08
0.11223E+08
0.11464E+08
0.11380E+08
0.11507E+08
0.11540E+08
0.11192E+08
0.11216E+08
0.11133E+08
0.11184E+08
0.11223E+08
0.11086E+08
0.11153E+08
0.11061E+08
0.11173E+08
0.11122E+08
0.11184E+08
0.11105E+08
0.11529E+08
0.10793E+08
</weights>
</event>
<event>
      7  10001  1.11453E+07  1.42009E+00 -1.00000E+00  4.43409E-01
      21    -1     0     0   502   501  0.000000000E+00  0.000000000E+00  1.369289934E+01  1.369289934E+01  0.000000000E+00  0.00000E+00  9.000E+00
      -2    -1     0     0     0   502  0.000000000E+00  0.000000000E+00 -2.194232752E-01  2.194232752E-01  0.000000000E+00  0.00000E+00  9.000E+00
      23     2     1     2     0     0 -5.993357976E-01  6.141964047E-02  7.569834824E+00  7.754632995E+00  1.571291777E+00  0.00000E+00  9.000E+00
      11     1     3     3     0     0  3.543678281E-01  3.620944167E-01  4.442933827E+00  4.471727874E+00  5.110000000E-04  0.00000E+00  9.000E+00
     -11     1     3     3     0     0 -9.537036258E-01 -3.006747763E-01  3.126900997E+00  3.282905121E+00  5.110000000E-04  0.00000E+00  9.000E+00
      -2     1     1     2     0   511  3.361726796E-01 -1.459470128E-01  1.477233817E-01  3.951389610E-01  0.000000000E+00  0.00000E+00  9.000E+00
      21     1     1     2   511   501  2.631631181E-01  8.452737231E-02  5.755917854E+00  5.762550654E+00  8.429369702E-08  0.00000E+00  9.000E+00
#rwgt            1          14   337350.91595219512                3     7121180           0
<weights>
0.11145E+08
0.13319E+08
0.91080E+07
0.11788E+08
0.10003E+08
0.12064E+08
0.94676E+07
0.10857E+08
0.11507E+08
0.10795E+08
0.10736E+08
0.10973E+08
0.10928E+08
0.10796E+08
0.10753E+08
0.11172E+08
0.11338E+08
0.11550E+08
0.11542E+08
0.11519E+08
0.11529E+08
0.11593E+08
0.11575E+08
0.11542E+08
0.11269E+08
0.11372E+08
0.11258E+08
0.11550E+08
0.11363E+08
0.11588E+08
0.11583E+08
0.11164E+08
0.11263E+08
0.11138E+08
0.11191E+08
0.10954E+08
0.11384E+08
0.11239E+08
0.10983E+08
0.11184E+08
0.11108E+08
0.11233E+08
0.11053E+08
0.11569E+08
0.10760E+08
</weights>
</event>
<event>
      6  10001 -1.11453E+07  8.94427E-01 -1.00000E+00  3.51470E-01
       5    -1     0     0   501     0  0.000000000E+00  0.000000000E+00  1.243202046E-02  1.243202046E-02  0.000000000E+00  0.00000E+00  9.000E+00
      21    -1     0     0   502   501  0.000000000E+00  0.000000000E+00 -2.295561015E+02  2.295561015E+02  0.000000000E+00  0.00000E+00  9.000E+00
      23     2     1     2     0     0 -8.588560003E-01 -4.074303652E-01 -8.620171489E+01  8.622342695E+01  1.685251110E+00  0.00000E+00  9.000E+00
      11     1     3     3     0     0 -3.520449311E-01 -6.071249836E-01 -1.249156954E+01  1.251126877E+01  5.110000000E-04  0.00000E+00  9.000E+00
     -11     1     3     3     0     0 -5.068110692E-01  1.996946184E-01 -7.371014535E+01  7.371215817E+01  5.110000000E-04  0.00000E+00  9.000E+00
       5     1     1     2   502     0  8.588560003E-01  4.074303652E-01 -1.433419546E+02  1.433451066E+02  0.000000000E+00  0.00000E+00  9.000E+00
#rwgt            1          30  -26420.894377626497                3     7145950           0
<weights>
-.11145E+08
-.12066E+08
-.98942E+07
-.14665E+08
-.79278E+07
-.91702E+07
-.13910E+08
-.11021E+08
-.11265E+08
-.11520E+08
-.11382E+08
-.11192E+08
-.11439E+08
-.11460E+08
-.11434E+08
-.11070E+08
-.11095E+08
-.10872E+08
-.10815E+08
-.10818E+08
-.10894E+08
-.10853E+08
-.10773E+08
-.11111E+08
-.10776E+08
-.10914E+08
-.11233E+08
-.10936E+08
-.10958E+08
-.10908E+08
-.10833E+08
-.11182E+08
-.11012E+08
-.11096E+08
-.11187E+08
-.11049E+08
-.11224E+08
-.11387E+08
-.10928E+08
-.11028E+08
-.11256E+08
-.11056E+08
-.11241E+08
-.10813E+08
-.11454E+08
</weights>
</event>
<event>
      6  10001 -1.11453E+07  8.94427E-01 -1.00000E+00  4.30194E-01
      -4    -1     0     0     0   502  0.000000000E+00  0.000000000E+00  4.535447195E-02  4.535447195E-02  0.000000000E+00  0.00000E+00  9.000E+00
       4    -1     0     0   501     0  0.000000000E+00  0.000000000E+00 -5.137982888E+01  5.137982888E+01  0.000000000E+00  0.00000E+00  9.000E+00
      23     2     1     2     0     0 -2.205532968E-01 -1.732417213E-01 -4.724332164E+01  4.732442886E+01  2.755262360E+00  0.00000E+00  9.000E+00
      11     1     3     3     0     0 -1.140909364E+00  8.264010956E-01 -2.493172409E+01  2.497149334E+01  5.110000000E-04  0.00000E+00  9.000E+00
     -11     1     3     3     0     0  9.203560668E-01 -9.996428170E-01 -2.231159755E+01  2.235293552E+01  5.110000000E-04  0.00000E+00  9.000E+00
      21     1     1     2   501   502  2.205532968E-01  1.732417213E-01 -4.091152768E+00  4.100754494E+00  8.429369702E-08  0.00000E+00  9.000E+00
#rwgt            1           4  -938191.41372081870                3     7146809           0
<weights>
-.11145E+08
-.93365E+07
-.12242E+08
-.17798E+08
-.61432E+07
-.50732E+07
-.20199E+08
-.11062E+08
-.11227E+08
-.11459E+08
-.11399E+08
-.11206E+08
-.11378E+08
-.11459E+08
-.11432E+08
-.11117E+08
-.11003E+08
-.10880E+08
-.10757E+08
-.10756E+08
-.10902E+08
-.10847E+08
-.10739E+08
-.11044E+08
-.10831E+08
-.10906E+08
-.11200E+08
-.10878E+08
-.10966E+08
-.10874E+08
-.10825E+08
-.11143E+08
-.11050E+08
-.11112E+08
-.11165E+08
-.11075E+08
-.11199E+08
-.11243E+08
-.11141E+08
-.11032E+08
-.11249E+08
-.11091E+08
-.11203E+08
-.10822E+08
-.11436E+08
</weights>
</event>
<event>
      6  10001  1.11453E+07  8.94427E-01 -1.00000E+00  6.05272E-01
      -3    -1     0     0     0   502  0.000000000E+00  0.000000000E+00  2.995596600E+00  2.995596600E+00  0.000000000E+00  0.00000E+00  9.000E+00
      21    -1     0     0   502   501  0.000000000E+00  0.000000000E+00 -9.038079992E+00  9.038079992E+00  0.000000000E+00  0.00000E+00  9.000E+00
      23     2     1     2     0     0  1.175054191E-01 -2.381259131E-01  2.224990144E+00  3.761939764E+00  3.021770702E+00  0.00000E+00  9.000E+00
      11     1     3     3     0     0 -8.801660189E-01  2.602060364E-01 -3.290628894E-01  9.750292552E-01  5.110000000E-04  0.00000E+00  9.000E+00
     -11     1     3     3     0     0  9.976714380E-01 -4.983319495E-01  2.554053033E+00  2.786910509E+00  5.110000000E-04  0.00000E+00  9.000E+00
      -3     1     1     2     0   501 -1.175054191E-01  2.381259131E-01 -8.267473536E+00  8.271736827E+00  0.000000000E+00  0.00000E+00  9.000E+00
#rwgt            1           5   808713.42383806570                3     7147959           0
<weights>
0.11145E+08
0.13942E+08
0.82739E+07
0.12093E+08
0.99465E+07
0.12527E+08
0.87565E+07
0.11238E+08
0.11046E+08
0.10635E+08
0.10619E+08
0.10867E+08
0.10922E+08
0.10648E+08
0.10629E+08
0.11261E+08
0.11295E+08
0.11671E+08
0.11700E+08
0.11700E+08
0.11628E+08
0.11718E+08
0.11768E+08
0.11434E+08
0.11531E+08
0.11495E+08
0.11045E+08
0.11656E+08
0.11467E+08
0.11686E+08
0.11737E+08
0.11214E+08
0.11251E+08
0.11127E+08
0.11201E+08
0.11296E+08
0.11019E+08
0.11122E+08
0.10979E+08
0.11211E+08
0.11090E+08
0.11194E+08
0.11095E+08
0.11723E+08
0.10618E+08
</weights>
</event>
<event>
      7  10001  1.11453E+07  2.23529E+00 -1.00000E+00  3.34502E-01
      21    -1     0     0   502   501  0.000000000E+00  0.000000000E+00  1.760460167E+02  1.760460167E+02  0.000000000E+00  0.00000E+00  9.000E+00
       4    -1     0     0   501     0  0.000000000E+00  0.000000000E+00 -3.951591890E-02  3.951591890E-02  0.000000000E+00  0.00000E+00  9.000E+00
      23     2     1     2     0     0 -5.582101403E-04 -5.660736343E-01  2.480685564E+01  2.487005512E+01  1.679022014E+00  0.00000E+00  9.000E+00
      11     1     3     3     0     0  6.355565828E-01  2.419806627E-01  6.819524212E+00  6.853349367E+00  5.110000000E-04  0.00000E+00  9.000E+00
     -11     1     3     3     0     0 -6.361147930E-01 -8.080542971E-01  1.798733143E+01  1.801670575E+01  5.110000000E-04  0.00000E+00  9.000E+00
       4     1     1     2   511     0 -4.195270383E-01 -6.720620361E-01  7.919675175E+01  7.920071438E+01  0.000000000E+00  0.00000E+00  9.000E+00
      21     1     1     2   502   511  4.200852484E-01  1.238135670E+00  7.200289334E+01  7.201476308E+01  9.536743164E-07  0.00000E+00  9.000E+00
#rwgt            1          19   959040.75072008697                3     7173465           0
<weights>
0.11145E+08
0.11773E+08
0.10364E+08
0.12833E+08
0.93389E+07
0.10202E+08
0.12326E+08
0.11157E+08
0.11135E+08
0.10781E+08
0.10749E+08
0.10945E+08
0.10972E+08
0.10791E+08
0.10763E+08
0.11233E+08
0.11244E+08
0.11524E+08
0.11576E+08
0.11562E+08
0.11496E+08
0.11577E+08
0.11586E+08
0.11493E+08
0.11337E+08
0.11307E+08
0.11437E+08
0.11502E+08
0.11426E+08
0.11562E+08
0.11589E+08
0.11205E+08
0.11218E+08
0.11132E+08
0.11191E+08
0.11195E+08
0.11117E+08
0.11213E+08
0.11003E+08
0.11187E+08
0.11110E+08
0.11195E+08
0.11093E+08
0.11570E+08
0.10758E+08
</weights>
</event>
<event>
      7  10001  1.11453E+07  2.27960E+00 -1.00000E+00  3.31300E-01
       2    -1     0     0   501     0  0.000000000E+00  0.000000000E+00  1.047637392E+02  1.047637392E+02  0.000000000E+00  0.00000E+00  9.000E+00
      21    -1     0     0   502   501  0.000000000E+00  0.000000000E+00 -2.759371770E-02  2.759371770E-02  0.000000000E+00  0.00000E+00  9.000E+00
      23     2     1     2     0     0  1.765531947E-01 -3.670430828E-01  4.044676646E+01  4.046237710E+01  1.047450053E+00  0.00000E+00  9.000E+00
      11     1     3     3     0     0 -3.845465392E-01  9.344383285E-02  1.307196622E+01  1.307795507E+01  5.110000000E-04  0.00000E+00  9.000E+00
     -11     1     3     3     0     0  5.610997339E-01 -4.604869157E-01  2.737480025E+01  2.738442203E+01  5.110000000E-04  0.00000E+00  9.000E+00
       2     1     1     2   512     0 -1.018146682E+00 -2.474518461E-01  4.434104175E+01  4.435341970E+01  0.000000000E+00  0.00000E+00  9.000E+00
      21     1     1     2   502   512  8.415934871E-01  6.144949289E-01  1.994833722E+01  1.997553607E+01  0.000000000E+00  0.00000E+00  9.000E+00
#rwgt            2         248   9250548.6419248786                3     7186565           0
<weights>
0.11145E+08
0.11442E+08
0.10577E+08
0.13907E+08
0.84750E+07
0.91702E+07
0.13910E+08
0.11165E+08
0.11128E+08
0.10813E+08
0.10797E+08
0.10958E+08
0.10997E+08
0.10829E+08
0.10809E+08
0.11227E+08
0.11220E+08
0.11476E+08
0.11525E+08
0.11511E+08
0.11452E+08
0.11520E+08
0.11537E+08
0.11439E+08
0.11328E+08
0.11289E+08
0.11401E+08
0.11451E+08
0.11386E+08
0.11500E+08
0.11532E+08
0.11189E+08
0.11218E+08
0.11137E+08
0.11181E+08
0.11203E+08
0.11108E+08
0.11152E+08
0.11064E+08
0.11171E+08
0.11123E+08
0.11188E+08
0.11101E+08
0.11521E+08
0.10800E+08
</weights>
</event>
<event>
      7  10001  1.11453E+07  8.94427E-01 -1.00000E+00  6.07649E-01
      21    -1     0     0   511   502  0.000000000E+00  0.000000000E+00  1.986169648E-01  1.986169648E-01  0.000000000E+00  0.00000E+00  9.000E+00
       3    -1     0     0   501     0  0.000000000E+00  0.000000000E+00 -5.210113333E+01  5.210113333E+01  0.000000000E+00  0.00000E+00  9.000E+00
      23     2     1     2     0     0  2.092275992E-02 -4.408511965E-02 -4.348531297E+01  4.350208825E+01  1.207002984E+00  0.00000E+00  9.000E+00
      11     1     3     3     0     0  4.323777391E-01 -3.950475312E-01 -3.034482309E+01  3.035047449E+01  5.110000000E-04  0.00000E+00  9.000E+00
     -11     1     3     3     0     0 -4.114549791E-01  3.509624116E-01 -1.314048988E+01  1.315161375E+01  5.110000000E-04  0.00000E+00  9.000E+00
      21     1     1     2   501   502 -6.499961546E-01  5.779478495E-02 -4.206478819E-01  7.763889996E-01  9.926343407E-08  0.00000E+00  9.000E+00
       3     1     1     2   511     0  6.290733947E-01 -1.370966530E-02 -7.996555516E+00  8.021273054E+00  0.000000000E+00  0.00000E+00  9.000E+00
#rwgt            2         193   57966.549421351177                3     7190996           0
<weights>
0.11145E+08
0.11157E+08
0.10900E+08
0.13560E+08
0.87335E+07
0.91702E+07
0.13910E+08
0.11175E+08
0.11115E+08
0.10987E+08
0.11141E+08
0.11285E+08
0.10865E+08
0.11087E+08
0.11086E+08
0.12072E+08
0.98756E+07
0.11398E+08
0.10855E+08
0.10902E+08
0.11315E+08
0.11148E+08
0.11239E+08
0.10710E+08
0.11454E+08
0.10076E+08
0.11343E+08
0.10407E+08
0.12068E+08
0.11067E+08
0.11244E+08
0.11195E+08
0.11108E+08
0.11220E+08
0.11078E+08
0.11249E+08
0.11050E+08
0.10917E+08
0.11392E+08
0.11104E+08
0.11173E+08
0.11233E+08
0.11052E+08
0.11215E+08
0.11068E+08
</weights>
</event>
<event>
      6  10001 -1.11453E+07  8.94427E-01 -1.00000E+00  6.02259E-01
       4    -1     0     0   501     0  0.000000000E+00  0.000000000E+00  2.036669350E+01  2.036669350E+01  0.000000000E+00  0.00000E+00  9.000E+00
      -4    -1     0     0     0   502  0.000000000E+00  0.000000000E+00 -3.896512176E-02  3.896512176E-02  0.000000000E+00  0.00000E+00  9.000E+00
      23     2     1     2     0     0  4.695423749E-01  2.523267860E-01  1.375439103E+01  1.381074371E+01  1.126601201E+00  0.00000E+00  9.000E+00
      11     1     3     3     0     0 -2.600396748E-01  8.873104121E-02  8.389737471E+00  8.394235458E+00  5.110000000E-04  0.00000E+00  9.000E+00
     -11     1     3     3     0     0  7.295820497E-01  1.635957447E-01  5.364653563E+00  5.416508252E+00  5.110000000E-04  0.00000E+00  9.000E+00
      21     1     1     2   501   502 -4.695423749E-01 -2.523267860E-01  6.573337342E+00  6.594914909E+00  0.000000000E+00  0.00000E+00  9.000E+00
#rwgt            1          27  -187224.90100698953                3     7191988           0
<weights>
-.11145E+08
-.10790E+08
-.10681E+08
-.19575E+08
-.52001E+07
-.52314E+07
-.19956E+08
-.11207E+08
-.11081E+08
-.10889E+08
-.10916E+08
-.10987E+08
-.11064E+08
-.10921E+08
-.10921E+08
-.11217E+08
-.11155E+08
-.11365E+08
-.11377E+08
-.11373E+08
-.11348E+08
-.11380E+08
-.11415E+08
-.11255E+08
-.11325E+08
-.11263E+08
-.11122E+08
-.11329E+08
-.11281E+08
-.11346E+08
-.11393E+08
-.11150E+08
-.11214E+08
-.11146E+08
-.11157E+08
-.11239E+08
-.11065E+08
-.10999E+08
-.11217E+08
-.11134E+08
-.11156E+08
-.11168E+08
-.11122E+08
-.11403E+08
-.10903E+08
</weights>
</event>
<event>
      7  10001 -1.11453E+07  1.22802E+00 -1.00000E+00  4.89046E-01
       3    -1     0     0   501     0  0.000000000E+00  0.000000000E+00  4.689259514E-01  4.689259514E-01  0.000000000E+00  0.00000E+00  9.000E+00
      21    -1     0     0   511   501  0.000000000E+00  0.000000000E+00 -2.137161352E+02  2.137161352E+02  0.000000000E+00  0.00000E+00  9.000E+00
      23     2     1     2     0     0 -4.209517981E-01  4.533852218E-01 -1.970648865E+00  2.693149330E+00  1.728247028E+00  0.00000E+00  9.000E+00
      11     1     3     3     0     0 -5.777936734E-01  7.803550963E-01 -3.495456068E-01  1.031979650E+00  5.110000000E-04  0.00000E+00  9.000E+00
     -11     1     3     3     0     0  1.568418753E-01 -3.269698745E-01 -1.621103258E+00  1.661169681E+00  5.110000000E-04  0.00000E+00  9.000E+00
       3     1     1     2   502     0 -5.111790046E-01  3.460944373E-01 -7.938814029E-01  1.005650544E+00  0.000000000E+00  0.00000E+00  9.000E+00
      21     1     1     2   511   502  9.321308027E-01 -7.994796591E-01 -2.104826790E+02  2.104862613E+02  2.697398305E-06  0.00000E+00  9.000E+00
#rwgt            1          26  -126124.77948339592                3     7193574           0
<weights>
-.11145E+08
-.79680E+07
-.13274E+08
-.18115E+08
-.58809E+07
-.38299E+07
-.22108E+08
-.11182E+08
-.11114E+08
-.11387E+08
-.11524E+08
-.11227E+08
-.11358E+08
-.11468E+08
-.11514E+08
-.11124E+08
-.10889E+08
-.10759E+08
-.10702E+08
-.10701E+08
-.10790E+08
-.10689E+08
-.10705E+08
-.10782E+08
-.11007E+08
-.10907E+08
-.11048E+08
-.10696E+08
-.10855E+08
-.10641E+08
-.10687E+08
-.11017E+08
-.11138E+08
-.11189E+08
-.11061E+08
-.11181E+08
-.11099E+08
-.10663E+08
-.11738E+08
-.10980E+08
-.11290E+08
-.11099E+08
-.11194E+08
-.10758E+08
-.11477E+08
</weights>
</event>
<event>
      7  10001  1.11453E+07  1.03591E+00 -1.00000E+00  5.49115E-01
      21    -1     0     0   511   501  0.000000000E+00  0.000000000E+00  5.268212826E+02  5.268212826E+02  0.000000000E+00  0.00000E+00  9.000E+00
      -2    -1     0     0     0   502  0.000000000E+00  0.000000000E+00 -2.409293777E-01  2.409293777E-01  0.000000000E+00  0.00000E+00  9.000E+00
      23     2     1     2     0     0  3.857787729E-01 -7.484491476E-01  2.110445797E+00  2.569070088E+00  1.198807018E+00  0.00000E+00  9.000E+00
      11     1     3     3     0     0 -1.743932777E-01 -7.903245447E-01  7.761653287E-01  1.121364695E+00  5.110000000E-04  0.00000E+00  9.000E+00
     -11     1     3     3     0     0  5.601720507E-01  4.187539708E-02  1.334280468E+00  1.447705393E+00  5.110000000E-04  0.00000E+00  9.000E+00
      -2     1     1     2     0   501 -1.419850903E+00  8.101258427E-01  6.050803177E+01  6.053010977E+01  0.000000000E+00  0.00000E+00  9.000E+00
      21     1     1     2   511   502  1.034072130E+00 -6.167669516E-02  4.639618756E+02  4.639630321E+02  0.000000000E+00  0.00000E+00  9.000E+00
#rwgt            1          14   3644074.4674586938                3     7199540           0
<weights>
0.11145E+08
0.11693E+08
0.10497E+08
0.12687E+08
0.94759E+07
0.10233E+08
0.12278E+08
0.11001E+08
0.11327E+08
0.10816E+08
0.10782E+08
0.10971E+08
0.10970E+08
0.10826E+08
0.10796E+08
0.11194E+08
0.11277E+08
0.11502E+08
0.11504E+08
0.11488E+08
0.11481E+08
0.11538E+08
0.11538E+08
0.11455E+08
0.11299E+08
0.11340E+08
0.11226E+08
0.11489E+08
0.11351E+08
0.11525E+08
0.11538E+08
0.11168E+08
0.11243E+08
0.11139E+08
0.11183E+08
0.11067E+08
0.11258E+08
0.11177E+08
0.11043E+08
0.11173E+08
0.11120E+08
0.11210E+08
0.11077E+08
0.11529E+08
0.10794E+08
</weights>
</event>
<event>
      7  10001  1.11453E+07  1.13548E+01 -1.00000E+00  1.89173E-01
      -4    -1     0     0     0   502  0.000000000E+00  0.000000000E+00  5.739792155E+00  5.739792155E+00  0.000000000E+00  0.00000E+00  9.000E+00
      21    -1     0     0   502   501  0.000000000E+00  0.000000000E+00 -6.265651676E+00  6.265651676E+00  0.000000000E+00  0.00000E+00  9.000E+00
      23     2     1     2     0     0 -4.433252981E-01 -7.811372527E-01  2.025804077E+00  2.505872134E+00  1.169957378E+00  0.00000E+00  9.000E+00
      11     1     3     3     0     0  2.513082002E-01  1.303196410E-01  6.902745785E-01  7.460685459E-01  5.110000000E-04  0.00000E+00  9.000E+00
     -11     1     3     3     0     0 -6.946334983E-01 -9.114568937E-01  1.335529498E+00  1.759803588E+00  5.110000000E-04  0.00000E+00  9.000E+00
      -4     1     1     2     0   511  1.453877344E+00 -5.248098501E-01  3.179476932E+00  3.535287579E+00  0.000000000E+00  0.00000E+00  9.000E+00
      21     1     1     2   511   501 -1.010552046E+00  1.305947103E+00 -5.731140529E+00  5.964284118E+00  5.127385418E-07  0.00000E+00  9.000E+00
#rwgt            2          41   2932717.9586377311                3     7236358           0
<weights>
0.11145E+08
0.11082E+08
0.10916E+08
0.13469E+08
0.87467E+07
0.91702E+07
0.13910E+08
0.11208E+08
0.11080E+08
0.10886E+08
0.10907E+08
0.10982E+08
0.11065E+08
0.10915E+08
0.10913E+08
0.11216E+08
0.11165E+08
0.11378E+08
0.11382E+08
0.11379E+08
0.11359E+08
0.11391E+08
0.11424E+08
0.11253E+08
0.11338E+08
0.11289E+08
0.11094E+08
0.11347E+08
0.11279E+08
0.11359E+08
0.11403E+08
0.11154E+08
0.11212E+08
0.11142E+08
0.11163E+08
0.11247E+08
0.11058E+08
0.11019E+08
0.11198E+08
0.11137E+08
0.11153E+08
0.11165E+08
0.11125E+08
0.11412E+08
0.10896E+08
</weights>
</event>
<event>
      6  10001 -1.11453E+07  8.94427E-01 -1.00000E+00  4.12757E-01
       2    -1     0     0   501     0  0.000000000E+00  0.000000000E+00  1.290241020E+02  1.290241020E+02  0.000000000E+00  0.00000E+00  9.000E+00
      21    -1     0     0   502   501  0.000000000E+00  0.000000000E+00 -2.335290262E-02  2.335290262E-02  0.000000000E+00  0.00000E+00  9.000E+00
      23     2     1     2     0     0 -2.682908129E-01  1.097701765E+00  9.684168949E+01  9.686854809E+01  1.981377238E+00  0.00000E+00  9.000E+00
      11     1     3     3     0     0  1.240382124E-01  1.372996730E+00  3.814757064E+01  3.817247243E+01  5.110000000E-04  0.00000E+00  9.000E+00
     -11     1     3     3     0     0 -3.923290253E-01 -2.752949655E-01  5.869411885E+01  5.869607566E+01  5.110000000E-04  0.00000E+00  9.000E+00
       2     1     1     2   502     0  2.682908129E-01 -1.097701765E+00  3.215905959E+01  3.217890680E+01  0.000000000E+00  0.00000E+00  9.000E+00
#rwgt            1          24  -16381108.157754084                3     7236818           0
<weights>
-.11145E+08
-.12706E+08
-.94023E+07
-.15449E+08
-.75338E+07
-.91670E+07
-.13909E+08
-.11171E+08
-.11120E+08
-.10824E+08
-.10814E+08
-.10962E+08
-.11006E+08
-.10841E+08
-.10824E+08
-.11226E+08
-.11210E+08
-.11461E+08
-.11504E+08
-.11492E+08
-.11438E+08
-.11501E+08
-.11520E+08
-.11412E+08
-.11328E+08
-.11285E+08
-.11356E+08
-.11433E+08
-.11372E+08
-.11478E+08
-.11513E+08
-.11183E+08
-.11217E+08
-.11138E+08
-.11177E+08
-.11208E+08
-.11102E+08
-.11131E+08
-.11085E+08
-.11166E+08
-.11128E+08
-.11185E+08
-.11103E+08
-.11505E+08
-.10814E+08
</weights>
</event>
<event>
      6  10001 -1.11453E+07  8.94427E-01 -1.00000E+00  2.95783E-01
       4    -1     0     0   501     0  0.000000000E+00  0.000000000E+00  1.282826055E-02  1.282826055E-02  0.000000000E+00  0.00000E+00  9.000E+00
      21    -1     0     0   502   501  0.000000000E+00  0.000000000E+00 -7.199780873E+02  7.199780873E+02  0.000000000E+00  0.00000E+00  9.000E+00
      23     2     1     2     0     0  2.434993595E+00 -6.849104696E-01 -5.069800544E+02  5.069906909E+02  2.094477727E+00  0.00000E+00  9.000E+00
      11     1     3     3     0     0  2.089596184E+00  3.289350742E-01 -3.898774636E+02  3.898832020E+02  5.110000000E-04  0.00000E+00  9.000E+00
     -11     1     3     3     0     0  3.453974103E-01 -1.013845544E+00 -1.171025908E+02  1.171074889E+02  5.110000000E-04  0.00000E+00  9.000E+00
       4     1     1     2   502     0 -2.434993595E+00  6.849104696E-01 -2.129852046E+02  2.130002246E+02  0.000000000E+00  0.00000E+00  9.000E+00
#rwgt            1          28  -47387.594470569406                3     7237912           0
<weights>
-.11145E+08
-.11753E+08
-.10116E+08
-.14284E+08
-.81055E+07
-.91702E+07
-.13910E+08
-.10725E+08
-.11578E+08
-.12263E+08
-.11632E+08
-.11442E+08
-.11746E+08
-.11687E+08
-.11755E+08
-.10867E+08
-.11451E+08
-.10544E+08
-.10813E+08
-.10847E+08
-.10569E+08
-.10537E+08
-.10666E+08
-.11153E+08
-.10444E+08
-.10711E+08
-.11346E+08
-.10827E+08
-.10876E+08
-.10804E+08
-.10540E+08
-.11495E+08
-.10619E+08
-.11007E+08
-.11305E+08
-.10677E+08
-.11579E+08
-.12612E+08
-.98176E+07
-.11030E+08
-.11263E+08
-.10959E+08
-.11346E+08
-.10403E+08
-.11922E+08
</weights>
</event>
<event>
      6  10001  1.11453E+07  8.94427E-01 -1.00000E+00  5.97915E-01
      21    -1     0     0   502   501  0.000000000E+00  0.000000000E+00  4.091145164E+00  4.091145164E+00  0.000000000E+00  0.00000E+00  9.000E+00
      -4    -1     0     0     0   502  0.000000000E+00  0.000000000E+00 -2.806976868E-01  2.806976868E-01  0.000000000E+00  0.00000E+00  9.000E+00
      23     2     1     2     0     0 -3.535265495E-01  4.572042106E-01  3.076603685E+00  3.437742523E+00  1.420762721E+00  0.00000E+00  9.000E+00
      11     1     3     3     0     0 -2.739404381E-01  5.275298796E-01  3.124194288E-01  6.715186507E-01  5.110000000E-04  0.00000E+00  9.000E+00
     -11     1     3     3     0     0 -7.958611143E-02 -7.032566908E-02  2.764184256E+00  2.766223872E+00  5.110000000E-04  0.00000E+00  9.000E+00
      -4     1     1     2     0   501  3.535265495E-01 -4.572042106E-01  7.338437928E-01  9.341003285E-01  0.000000000E+00  0.00000E+00  9.000E+00
#rwgt            1          12   110818.90950598675                3     7238677           0
<weights>
0.11145E+08
0.19363E+08
0.49165E+07
0.48140E+07
0.14374E+08
0.20957E+08
-.41840E+07
0.11139E+08
0.11148E+08
0.10566E+08
0.10440E+08
0.10848E+08
0.10818E+08
0.10540E+08
0.10467E+08
0.11279E+08
0.11390E+08
0.11841E+08
0.11890E+08
0.11875E+08
0.11787E+08
0.11943E+08
0.11910E+08
0.11779E+08
0.11437E+08
0.11453E+08
0.11503E+08
0.11839E+08
0.11666E+08
0.11955E+08
0.11953E+08
0.11307E+08
0.11227E+08
0.11100E+08
0.11256E+08
0.11180E+08
0.11143E+08
0.11559E+08
0.10638E+08
0.11282E+08
0.11028E+08
0.11233E+08
0.11053E+08
0.11885E+08
0.10481E+08
</weights>
</event>
<event>
      6  10001 -1.11453E+07  8.94427E-01 -1.00000E+00  2.14215E-01
       4    -1     0     0   501     0  0.000000000E+00  0.000000000E+00  1.040818705E+02  1.040818705E+02  0.000000000E+00  0.00000E+00  9.000E+00
      -4    -1     0     0     0   502  0.000000000E+00  0.000000000E+00 -8.637667927E-03  8.637667927E-03  0.000000000E+00  0.00000E+00  9.000E+00
      23     2     1     2     0     0  3.472666704E-01 -1.474460986E-02  8.137922715E+01  8.139384090E+01  1.502635035E+00  0.00000E+00  9.000E+00
      11     1     3     3     0     0 -1.435598172E-01  6.254561661E-01  2.269971125E+01  2.270878015E+01  5.110000000E-04  0.00000E+00  9.000E+00
     -11     1     3     3     0     0  4.908264877E-01 -6.402007759E-01  5.867951591E+01  5.868506075E+01  5.110000000E-04  0.00000E+00  9.000E+00
      21     1     1     2   501   502 -3.472666704E-01  1.474460986E-02  2.269400568E+01  2.269666727E+01  0.000000000E+00  0.00000E+00  9.000E+00
#rwgt            1          27  -210886.80118501632                3     7247185           0
<weights>
-.11145E+08
-.12664E+08
-.93714E+07
-.15403E+08
-.75093E+07
-.91637E+07
-.13909E+08
-.11171E+08
-.11121E+08
-.10815E+08
-.10802E+08
-.10958E+08
-.11000E+08
-.10832E+08
-.10813E+08
-.11228E+08
-.11216E+08
-.11474E+08
-.11516E+08
-.11504E+08
-.11450E+08
-.11515E+08
-.11533E+08
-.11423E+08
-.11331E+08
-.11292E+08
-.11355E+08
-.11447E+08
-.11381E+08
-.11494E+08
-.11528E+08
-.11188E+08
-.11217E+08
-.11136E+08
-.11180E+08
-.11207E+08
-.11103E+08
-.11146E+08
-.11069E+08
-.11170E+08
-.11124E+08
-.11187E+08
-.11102E+08
-.11517E+08
-.10803E+08
</weights>
</event>
<event>
      6  10001 -1.11453E+07  8.94427E-01 -1.00000E+00  3.49572E-01
      -2    -1     0     0     0   502  0.000000000E+00  0.000000000E+00  1.369346973E+02  1.369346973E+02  0.000000000E+00  0.00000E+00  9.000E+00
      21    -1     0     0   502   501  0.000000000E+00  0.000000000E+00 -1.657971710E-02  1.657971710E-02  0.000000000E+00  0.00000E+00  9.000E+00
      23     2     1     2     0     0  4.193344032E-02  1.082362758E+00  9.303148874E+01  9.305128318E+01  1.584341198E+00  0.00000E+00  9.000E+00
      11     1     3     3     0     0  4.738881280E-01  3.085088666E-01  7.063923420E+01  7.064149741E+01  5.110000000E-04  0.00000E+00  9.000E+00
     -11     1     3     3     0     0 -4.319546877E-01  7.738538910E-01  2.239225454E+01  2.240978577E+01  5.110000000E-04  0.00000E+00  9.000E+00
      -2     1     1     2     0   501 -4.193344032E-02 -1.082362758E+00  4.388662888E+01  4.389999387E+01  0.000000000E+00  0.00000E+00  9.000E+00
#rwgt            1           7  -2396221.5145925260                3     7247925           0
<weights>
-.11145E+08
-.12452E+08
-.96173E+07
-.15142E+08
-.77062E+07
-.91654E+07
-.13909E+08
-.11176E+08
-.11116E+08
-.10831E+08
-.10825E+08
-.10965E+08
-.11013E+08
-.10850E+08
-.10835E+08
-.11225E+08
-.11205E+08
-.11450E+08
-.11489E+08
-.11478E+08
-.11428E+08
-.11487E+08
-.11509E+08
-.11393E+08
-.11328E+08
-.11284E+08
-.11327E+08
-.11422E+08
-.11361E+08
-.11463E+08
-.11499E+08
-.11179E+08
-.11217E+08
-.11139E+08
-.11175E+08
-.11212E+08
-.11097E+08
-.11116E+08
-.11100E+08
-.11162E+08
-.11131E+08
-.11183E+08
-.11106E+08
-.11493E+08
-.10824E+08
</weights>
</event>
<event>
      7  10001  1.11453E+07  1.31798E+00 -1.00000E+00  4.66388E-01
      21    -1     0     0   502   511  0.000000000E+00  0.000000000E+00  2.071409985E+02  2.071409985E+02  0.000000000E+00  0.00000E+00  9.000E+00
       2    -1     0     0   501     0  0.000000000E+00  0.000000000E+00 -5.650347406E-02  5.650347406E-02  0.000000000E+00  0.00000E+00  9.000E+00
      23     2     1     2     0     0  3.171485414E-01 -3.921560485E-01  3.469429147E+01  3.473624365E+01  1.630457711E+00  0.00000E+00  9.000E+00
      11     1     3     3     0     0 -3.167717904E-02 -8.698537942E-02  9.087826997E-02  1.297267165E-01  5.110000000E-04  0.00000E+00  9.000E+00
     -11     1     3     3     0     0  3.488257204E-01 -3.051706691E-01  3.460341320E+01  3.460651693E+01  5.110000000E-04  0.00000E+00  9.000E+00
       2     1     1     2   502     0 -2.377808175E-01 -9.234342542E-01  6.875675155E+00  6.941482506E+00  0.000000000E+00  0.00000E+00  9.000E+00
      21     1     1     2   501   511 -7.936772392E-02  1.315590303E+00  1.655145284E+02  1.655197758E+02  1.907348633E-06  0.00000E+00  9.000E+00
#rwgt            1          17   194185.48477591900                3     7249522           0
<weights>
0.11145E+08
0.13262E+08
0.91004E+07
0.12058E+08
0.98320E+07
0.11862E+08
0.97783E+07
0.10837E+08
0.11577E+08
0.10788E+08
0.10726E+08
0.10970E+08
0.10925E+08
0.10788E+08
0.10743E+08
0.11179E+08
0.11334E+08
0.11548E+08
0.11582E+08
0.11555E+08
0.11526E+08
0.11605E+08
0.11587E+08
0.11599E+08
0.11257E+08
0.11342E+08
0.11464E+08
0.11551E+08
0.11392E+08
0.11601E+08
0.11597E+08
0.11175E+08
0.11257E+08
0.11131E+08
0.11200E+08
0.10977E+08
0.11366E+08
0.11254E+08
0.10970E+08
0.11187E+08
0.11106E+08
0.11228E+08
0.11058E+08
0.11580E+08
0.10750E+08
</weights>
</event>
<event>
      6  10001 -1.11453E+07  8.94427E-01 -1.00000E+00  2.84295E-01
       2    -1     0     0   501     0  0.000000000E+00  0.000000000E+00  3.230004468E+02  3.230004468E+02  0.000000000E+00  0.00000E+00  9.000E+00
      21    -1     0     0   502   501  0.000000000E+00  0.000000000E+00 -1.827599488E-02  1.827599488E-02  0.000000000E+00  0.00000E+00  9.000E+00
      23     2     1     2     0     0  7.758045407E-02  4.530758733E-01  3.193360838E+02  3.193437742E+02  2.168047351E+00  0.00000E+00  9.000E+00
      11     1     3     3     0     0 -4.725507995E-01  8.031496745E-01  6.328642059E+01  6.329328072E+01  5.110000000E-04  0.00000E+00  9.000E+00
     -11     1     3     3     0     0  5.501312536E-01 -3.500738012E-01  2.560496632E+02  2.560504935E+02  5.110000000E-04  0.00000E+00  9.000E+00
       2     1     1     2   502     0 -7.758045407E-02 -4.530758733E-01  3.646087061E+00  3.674948616E+00  0.000000000E+00  0.00000E+00  9.000E+00
#rwgt            1          24  -35281940.054417424                3     7256466           0
<weights>
-.11145E+08
-.12096E+08
-.99845E+07
-.14709E+08
-.80003E+07
-.91656E+07
-.13909E+08
-.11173E+08
-.11119E+08
-.10825E+08
-.10816E+08
-.10962E+08
-.11008E+08
-.10843E+08
-.10826E+08
-.11226E+08
-.11210E+08
-.11460E+08
-.11500E+08
-.11489E+08
-.11437E+08
-.11499E+08
-.11518E+08
-.11407E+08
-.11329E+08
-.11287E+08
-.11343E+08
-.11433E+08
-.11370E+08
-.11476E+08
-.11511E+08
-.11183E+08
-.11217E+08
-.11138E+08
-.11177E+08
-.11209E+08
-.11100E+08
-.11129E+08
-.11087E+08
-.11166E+08
-.11128E+08
-.11185E+08
-.11104E+08
-.11503E+08
-.10816E+08
</weights>
</event>
<event>
      6  10001 -1.11453E+07  8.94427E-01 -1.00000E+00  5.68229E-01
      -2    -1     0     0     0   502  0.000000000E+00  0.000000000E+00  7.923973869E-03  7.923973869E-03  0.000000000E+00  0.00000E+00  9.000E+00
       2    -1     0     0   501     0  0.000000000E+00  0.000000000E+00 -1.509872885E+02  1.509872885E+02  0.000000000E+00  0.00000E+00  9.000E+00
      23     2     1     2     0     0  1.762910446E-01  1.813563857E-01 -8.009066476E+01  8.010606152E+01  1.550013420E+00  0.00000E+00  9.000E+00
      11     1     3     3     0     0  5.313572734E-01  1.723739193E-03 -9.886434430E+00  9.900703487E+00  5.110000000E-04  0.00000E+00  9.000E+00
     -11     1     3     3     0     0 -3.550662288E-01  1.796326465E-01 -7.020423033E+01  7.020535804E+01  5.110000000E-04  0.00000E+00  9.000E+00
      21     1     1     2   501   502 -1.762910446E-01 -1.813563857E-01 -7.088869979E+01  7.088915098E+01  1.348699152E-06  0.00000E+00  9.000E+00
#rwgt            1           8  -403330.82262001146                3     7257956           0
<weights>
-.11145E+08
-.12538E+08
-.96024E+07
-.15238E+08
-.76940E+07
-.91702E+07
-.13910E+08
-.11136E+08
-.11154E+08
-.11170E+08
-.11172E+08
-.11132E+08
-.11166E+08
-.11174E+08
-.11173E+08
-.11258E+08
-.10952E+08
-.11162E+08
-.11042E+08
-.11035E+08
-.11164E+08
-.11106E+08
-.11123E+08
-.11207E+08
-.11029E+08
-.11090E+08
-.11165E+08
-.11110E+08
-.11098E+08
-.11112E+08
-.11121E+08
-.11091E+08
-.11188E+08
-.11162E+08
-.11114E+08
-.11140E+08
-.11145E+08
-.11162E+08
-.11131E+08
-.11133E+08
-.11152E+08
-.11178E+08
-.11110E+08
-.11114E+08
-.11173E+08
</weights>
</event>
<event>
      6  10001  1.11453E+07  8.94427E-01 -1.00000E+00  5.96366E-01
      21    -1     0     0   502   501  0.000000000E+00  0.000000000E+00  1.260936942E+00  1.260936942E+00  0.000000000E+00  0.00000E+00  9.000E+00
      -4    -1     0     0     0   502  0.000000000E+00  0.000000000E+00 -8.947121333E-01  8.947121333E-01  0.000000000E+00  0.00000E+00  9.000E+00
      23     2     1     2     0     0  4.949115507E-01 -7.402741581E-02  8.800344089E-01  1.438419819E+00  1.021848087E+00  0.00000E+00  9.000E+00
      11     1     3     3     0     0 -9.357125786E-02  6.039586490E-02  8.247693119E-01  8.322547205E-01  5.110000000E-04  0.00000E+00  9.000E+00
     -11     1     3     3     0     0  5.884828086E-01 -1.344232807E-01  5.526509703E-02  6.061650984E-01  5.110000000E-04  0.00000E+00  9.000E+00
      -4     1     1     2     0   501 -4.949115507E-01  7.402741581E-02 -5.138096001E-01  7.172292566E-01  0.000000000E+00  0.00000E+00  9.000E+00
#rwgt            1          12   70540.727810132841                3     7258872           0
<weights>
0.11145E+08
0.18191E+08
0.52544E+07
0.75912E+07
0.12099E+08
0.18209E+08
0.34925E+05
0.11180E+08
0.11104E+08
0.10577E+08
0.10466E+08
0.10842E+08
0.10846E+08
0.10557E+08
0.10491E+08
0.11282E+08
0.11373E+08
0.11829E+08
0.11830E+08
0.11826E+08
0.11773E+08
0.11912E+08
0.11884E+08
0.11663E+08
0.11485E+08
0.11503E+08
0.11230E+08
0.11827E+08
0.11617E+08
0.11917E+08
0.11921E+08
0.11297E+08
0.11226E+08
0.11097E+08
0.11255E+08
0.11228E+08
0.11092E+08
0.11493E+08
0.10687E+08
0.11271E+08
0.11038E+08
0.11219E+08
0.11069E+08
0.11861E+08
0.10501E+08
</weights>
</event>
<event>
      6  10001 -1.11453E+07  8.94427E-01 -1.00000E+00  1.35103E-01
      21    -1     0     0   502   501  0.000000000E+00  0.000000000E+00  2.484346246E-02  2.484346246E-02  0.000000000E+00  0.00000E+00  9.000E+00
      -4    -1     0     0     0   502  0.000000000E+00  0.000000000E+00 -2.188044261E+01  2.188044261E+01  0.000000000E+00  0.00000E+00  9.000E+00
      23     2     1     2     0     0 -5.404387043E-03 -2.757911634E-01 -2.007625165E+01  2.010468410E+01  1.032643294E+00  0.00000E+00  9.000E+00
      11     1     3     3     0     0 -3.148320664E-01 -6.365764974E-02 -1.732437297E+01  1.732735036E+01  5.110000000E-04  0.00000E+00  9.000E+00
     -11     1     3     3     0     0  3.094276794E-01 -2.121335137E-01 -2.751878684E+00  2.777333734E+00  5.110000000E-04  0.00000E+00  9.000E+00
      -4     1     1     2     0   501  5.404387043E-03  2.757911634E-01 -1.779347497E+00  1.800601979E+00  0.000000000E+00  0.00000E+00  9.000E+00
#rwgt            1          12  -4389956.0865428252                3     7266529           0
<weights>
-.11145E+08
-.13229E+08
-.89735E+07
-.16078E+08
-.71901E+07
-.91702E+07
-.13910E+08
-.11244E+08
-.11046E+08
-.10846E+08
-.10915E+08
-.10945E+08
-.11092E+08
-.10899E+08
-.10917E+08
-.11202E+08
-.11170E+08
-.11362E+08
-.11392E+08
-.11387E+08
-.11348E+08
-.11370E+08
-.11432E+08
-.11208E+08
-.11394E+08
-.11357E+08
-.11040E+08
-.11348E+08
-.11227E+08
-.11315E+08
-.11385E+08
-.11116E+08
-.11247E+08
-.11160E+08
-.11139E+08
-.11312E+08
-.10997E+08
-.10843E+08
-.11385E+08
-.11110E+08
-.11179E+08
-.11144E+08
-.11148E+08
-.11418E+08
-.10884E+08
</weights>
</event>
<event>
      7  10001  1.11453E+07  2.92721E+00 -1.00000E+00  2.95376E-01
       4    -1     0     0   501     0  0.000000000E+00  0.000000000E+00  1.830164881E+01  1.830164881E+01  0.000000000E+00  0.00000E+00  9.000E+00
       4    -1     0     0   502     0  0.000000000E+00  0.000000000E+00 -7.462052308E+01  7.462052308E+01  0.000000000E+00  0.00000E+00  9.000E+00
      23     2     1     2     0     0 -3.859780902E+00  1.558979566E+00 -4.920325360E+01  4.945121226E+01  2.670936851E+00  0.00000E+00  9.000E+00
      11     1     3     3     0     0 -3.204330238E+00  3.063925173E-02 -2.797860842E+01  2.816151985E+01  5.110000000E-04  0.00000E+00  9.000E+00
     -11     1     3     3     0     0 -6.554506644E-01  1.528340314E+00 -2.122464518E+01  2.128969241E+01  5.110000000E-04  0.00000E+00  9.000E+00
       4     1     1     2   502     0  1.953339626E+00 -3.780244755E+00  1.784194290E+01  1.834232026E+01  0.000000000E+00  0.00000E+00  9.000E+00
       4     1     1     2   501     0  1.906441276E+00  2.221265189E+00 -2.495756357E+01  2.512863937E+01  0.000000000E+00  0.00000E+00  9.000E+00
#rwgt            2         318   448172.21454354748                3     7267300           0
<weights>
0.11145E+08
0.10405E+08
0.11779E+08
0.12646E+08
0.94376E+07
0.91702E+07
0.13910E+08
0.11195E+08
0.11096E+08
0.11084E+08
0.11147E+08
0.11009E+08
0.11270E+08
0.11165E+08
0.11165E+08
0.11161E+08
0.11057E+08
0.11117E+08
0.11062E+08
0.11056E+08
0.11126E+08
0.11104E+08
0.11070E+08
0.11115E+08
0.11125E+08
0.11136E+08
0.11130E+08
0.11111E+08
0.11063E+08
0.11057E+08
0.11098E+08
0.11090E+08
0.11190E+08
0.11163E+08
0.11121E+08
0.11263E+08
0.11036E+08
0.10829E+08
0.11529E+08
0.11019E+08
0.11262E+08
0.11094E+08
0.11200E+08
0.11143E+08
0.11126E+08
</weights>
</event>
<event>
      6  10001  1.11453E+07  8.94427E-01 -1.00000E+00  5.99714E-01
       4    -1     0     0   501     0  0.000000000E+00  0.000000000E+00  6.865057793E-01  6.865057793E-01  0.000000000E+00  0.00000E+00  9.000E+00
      21    -1     0     0   502   501  0.000000000E+00  0.000000000E+00 -6.986252939E+00  6.986252939E+00  0.000000000E+00  0.00000E+00  9.000E+00
      23     2     1     2     0     0  9.909797845E-01 -1.002021146E+00 -3.646701513E+00  4.668638462E+00  2.551796593E+00  0.00000E+00  9.000E+00
      11     1     3     3     0     0 -6.390419967E-01  3.607448788E-01 -5.679588975E-01  9.279488734E-01  5.110000000E-04  0.00000E+00  9.000E+00
     -11     1     3     3     0     0  1.630021781E+00 -1.362766025E+00 -3.078742616E+00  3.740689589E+00  5.110000000E-04  0.00000E+00  9.000E+00
       4     1     1     2   502     0 -9.909797845E-01  1.002021146E+00 -2.653045646E+00  3.004120256E+00  0.000000000E+00  0.00000E+00  9.000E+00
#rwgt            1          28   512423.78769745969                3     7267817           0
<weights>
0.11145E+08
0.15049E+08
0.73759E+07
0.11950E+08
0.97138E+07
0.13308E+08
0.75580E+07
0.11231E+08
0.11051E+08
0.10588E+08
0.10548E+08
0.10846E+08
0.10885E+08
0.10593E+08
0.10562E+08
0.11274E+08
0.11325E+08
0.11744E+08
0.11767E+08
0.11767E+08
0.11695E+08
0.11802E+08
0.11838E+08
0.11503E+08
0.11546E+08
0.11518E+08
0.11069E+08
0.11730E+08
0.11526E+08
0.11777E+08
0.11821E+08
0.11240E+08
0.11250E+08
0.11120E+08
0.11216E+08
0.11286E+08
0.11030E+08
0.11208E+08
0.10887E+08
0.11233E+08
0.11070E+08
0.11204E+08
0.11084E+08
0.11794E+08
0.10556E+08
</weights>
</event>
<event>
      6  10001 -1.11453E+07  8.94427E-01 -1.00000E+00  1.52611E-01
       2    -1     0     0   501     0  0.000000000E+00  0.000000000E+00  5.816690092E+01  5.816690092E+01  0.000000000E+00  0.00000E+00  9.000E+00
      21    -1     0     0   502   501  0.000000000E+00  0.000000000E+00 -1.019763925E-02  1.019763925E-02  0.000000000E+00  0.00000E+00  9.000E+00
      23     2     1     2     0     0 -3.588071115E-01 -1.099770158E-01  4.968169294E+01  4.969378330E+01  1.029877633E+00  0.00000E+00  9.000E+00
      11     1     3     3     0     0  3.067541262E-01  1.836992937E-01  1.322269929E+01  1.322753266E+01  5.110000000E-04  0.00000E+00  9.000E+00
     -11     1     3     3     0     0 -6.655612378E-01 -2.936763095E-01  3.645899366E+01  3.646625065E+01  5.110000000E-04  0.00000E+00  9.000E+00
       2     1     1     2   502     0  3.588071115E-01  1.099770158E-01  8.475010336E+00  8.483315253E+00  0.000000000E+00  0.00000E+00  9.000E+00
#rwgt            1          24  -9856241.3780025784                3     7335324           0
<weights>
-.11145E+08
-.12175E+08
-.99858E+07
-.14806E+08
-.80015E+07
-.91651E+07
-.13909E+08
-.11180E+08
-.11110E+08
-.10840E+08
-.10839E+08
-.10968E+08
-.11020E+08
-.10861E+08
-.10848E+08
-.11223E+08
-.11197E+08
-.11438E+08
-.11473E+08
-.11463E+08
-.11416E+08
-.11471E+08
-.11495E+08
-.11372E+08
-.11328E+08
-.11281E+08
-.11293E+08
-.11409E+08
-.11349E+08
-.11446E+08
-.11484E+08
-.11175E+08
-.11216E+08
-.11140E+08
-.11173E+08
-.11216E+08
-.11092E+08
-.11100E+08
-.11115E+08
-.11158E+08
-.11135E+08
-.11181E+08
-.11108E+08
-.11480E+08
-.10836E+08
</weights>
</event>
<event>
      7  10001  1.11453E+07  6.95207E+00 -1.00000E+00  2.15111E-01
      -1    -1     0     0     0   502  0.000000000E+00  0.000000000E+00  4.521470398E-02  4.521470398E-02  0.000000000E+00  0.00000E+00  9.000E+00
      21    -1     0     0   502   501  0.000000000E+00  0.000000000E+00 -5.156139112E+02  5.156139112E+02  0.000000000E+00  0.00000E+00  9.000E+00
      23     2     1     2     0     0  2.632374088E-01 -2.380645692E-02 -1.164254655E+02  1.164542429E+02  2.575231361E+00  0.00000E+00  9.000E+00
      11     1     3     3     0     0 -7.968451744E-01 -7.979165621E-01 -3.490706556E+01  3.492527536E+01  5.110000000E-04  0.00000E+00  9.000E+00
     -11     1     3     3     0     0  1.060082583E+00  7.741101052E-01 -8.151839994E+01  8.152896756E+01  5.110000000E-04  0.00000E+00  9.000E+00
      -1     1     1     2     0   511 -1.854597289E+00  2.981033647E+00 -1.632400688E+02  1.632778189E+02  0.000000000E+00  0.00000E+00  9.000E+00
      21     1     1     2   511   501  1.591359880E+00 -2.957227190E+00 -2.359031622E+02  2.359270640E+02  0.000000000E+00  0.00000E+00  9.000E+00
#rwgt            1           9   71646.403161550872                3     7337242           0
<weights>
0.11140E+08
0.10804E+08
0.11551E+08
0.11974E+08
0.10151E+08
0.10044E+08
0.12664E+08
0.10808E+08
0.11472E+08
0.12017E+08
0.11563E+08
0.11315E+08
0.11689E+08
0.11670E+08
0.11674E+08
0.10949E+08
0.11225E+08
0.10633E+08
0.10707E+08
0.10726E+08
0.10661E+08
0.10607E+08
0.10616E+08
0.11141E+08
0.10472E+08
0.10702E+08
0.11331E+08
0.10802E+08
0.10879E+08
0.10797E+08
0.10598E+08
0.11348E+08
0.10765E+08
0.11012E+08
0.11274E+08
0.10810E+08
0.11435E+08
0.12124E+08
0.10170E+08
0.10987E+08
0.11290E+08
0.10981E+08
0.11311E+08
0.10500E+08
0.11780E+08
</weights>
</event>
<event>
      6  10001  1.11453E+07  8.94427E-01 -1.00000E+00  2.30548E-01
       2    -1     0     0   501     0  0.000000000E+00  0.000000000E+00  6.419274649E+02  6.419274649E+02  0.000000000E+00  0.00000E+00  9.000E+00
      21    -1     0     0   502   501  0.000000000E+00  0.000000000E+00 -9.512415703E-04  9.512415703E-04  0.000000000E+00  0.00000E+00  9.000E+00
      23     2     1     2     0     0  4.106379610E-01 -4.629438546E-02  4.548398218E+02  4.548412679E+02  1.069917259E+00  0.00000E+00  9.000E+00
      11     1     3     3     0     0 -2.579842296E-01  2.828682809E-01  1.956976372E+02  1.956980117E+02  5.110000000E-04  0.00000E+00  9.000E+00
     -11     1     3     3     0     0  6.686221906E-01 -3.291626664E-01  2.591421846E+02  2.591432562E+02  5.110000000E-04  0.00000E+00  9.000E+00
       2     1     1     2   502     0 -4.106379610E-01  4.629438546E-02  1.870866919E+02  1.870871482E+02  0.000000000E+00  0.00000E+00  9.000E+00
#rwgt            1          24   269682765.14028162                3     7348464           0
<weights>
0.11145E+08
0.24448E+07
0.24414E+08
0.29812E+07
0.19563E+08
0.91564E+07
0.13908E+08
0.11219E+08
0.11070E+08
0.10935E+08
0.10994E+08
0.11007E+08
0.11101E+08
0.10981E+08
0.10995E+08
0.11208E+08
0.11112E+08
0.11287E+08
0.11296E+08
0.11293E+08
0.11276E+08
0.11288E+08
0.11335E+08
0.11174E+08
0.11311E+08
0.11227E+08
0.11087E+08
0.11243E+08
0.11219E+08
0.11244E+08
0.11302E+08
0.11120E+08
0.11217E+08
0.11157E+08
0.11137E+08
0.11251E+08
0.11051E+08
0.10903E+08
0.11346E+08
0.11107E+08
0.11179E+08
0.11158E+08
0.11132E+08
0.11327E+08
0.10969E+08
</weights>
</event>
<event>
      7  10001  1.11453E+07  2.62507E+00 -1.00000E+00  3.09978E-01
      21    -1     0     0   511   501  0.000000000E+00  0.000000000E+00  9.989194475E+01  9.989194475E+01  0.000000000E+00  0.00000E+00  9.000E+00
      -4    -1     0     0     0   502  0.000000000E+00  0.000000000E+00 -1.339644445E+00  1.339644445E+00  0.000000000E+00  0.00000E+00  9.000E+00
      23     2     1     2     0     0 -5.592125730E-02  1.184866654E+00  5.037354461E-01  2.497737168E+00  2.139604026E+00  0.00000E+00  9.000E+00
      11     1     3     3     0     0  1.016570253E+00  3.135220318E-01  2.499080831E-01  1.092778777E+00  5.110000000E-04  0.00000E+00  9.000E+00
     -11     1     3     3     0     0 -1.072491511E+00  8.713446218E-01  2.538273630E-01  1.404958391E+00  5.110000000E-04  0.00000E+00  9.000E+00
      -4     1     1     2     0   501  9.149237265E-01  1.295679076E+00  1.611795289E+00  2.261361039E+00  0.000000000E+00  0.00000E+00  9.000E+00
      21     1     1     2   511   502 -8.590024692E-01 -2.480545730E+00  9.643676957E+01  9.647249099E+01  1.348699152E-06  0.00000E+00  9.000E+00
#rwgt            1          12   327353.82904587989                3     7349016           0
<weights>
0.11145E+08
0.18920E+08
0.42623E+07
0.10857E+08
0.10380E+08
0.16918E+08
0.20160E+07
0.11195E+08
0.11087E+08
0.10516E+08
0.10385E+08
0.10804E+08
0.10821E+08
0.10488E+08
0.10414E+08
0.11292E+08
0.11419E+08
0.11919E+08
0.11900E+08
0.11900E+08
0.11855E+08
0.12006E+08
0.11972E+08
0.11686E+08
0.11553E+08
0.11603E+08
0.11112E+08
0.11933E+08
0.11651E+08
0.12014E+08
0.12013E+08
0.11320E+08
0.11230E+08
0.11084E+08
0.11275E+08
0.11260E+08
0.11062E+08
0.11551E+08
0.10606E+08
0.11293E+08
0.11020E+08
0.11218E+08
0.11070E+08
0.11945E+08
0.10427E+08
</weights>
</event>
<event>
      6  10001 -1.11453E+07  8.94427E-01 -1.00000E+00  6.37988E-01
      -2    -1     0     0     0   502  0.000000000E+00  0.000000000E+00  9.220580514E+01  9.220580514E+01  0.000000000E+00  0.00000E+00  9.000E+00
      21    -1     0     0   502   501  0.000000000E+00  0.000000000E+00 -1.112634815E-02  1.112634815E-02  0.000000000E+00  0.00000E+00  9.000E+00
      23     2     1     2     0     0  6.897615088E-02  5.156766216E-01  7.491837977E+01  7.493280039E+01  1.374869498E+00  0.00000E+00  9.000E+00
      11     1     3     3     0     0  1.908430298E-01  7.051513444E-01  1.909868421E+01  1.911265022E+01  5.110000000E-04  0.00000E+00  9.000E+00
     -11     1     3     3     0     0 -1.218668789E-01 -1.894747228E-01  5.581969556E+01  5.582015017E+01  5.110000000E-04  0.00000E+00  9.000E+00
      -2     1     1     2     0   501 -6.897615088E-02 -5.156766216E-01  1.727629903E+01  1.728413111E+01  0.000000000E+00  0.00000E+00  9.000E+00
#rwgt            1           7  -2319388.8516461262                3     7354873           0
<weights>
-.11145E+08
-.12318E+08
-.97785E+07
-.14974E+08
-.78352E+07
-.91683E+07
-.13910E+08
-.11173E+08
-.11118E+08
-.10826E+08
-.10817E+08
-.10963E+08
-.11008E+08
-.10844E+08
-.10828E+08
-.11225E+08
-.11209E+08
-.11458E+08
-.11499E+08
-.11487E+08
-.11435E+08
-.11496E+08
-.11516E+08
-.11405E+08
-.11328E+08
-.11286E+08
-.11339E+08
-.11430E+08
-.11368E+08
-.11474E+08
-.11509E+08
-.11182E+08
-.11217E+08
-.11138E+08
-.11177E+08
-.11210E+08
-.11100E+08
-.11127E+08
-.11089E+08
-.11165E+08
-.11129E+08
-.11184E+08
-.11104E+08
-.11501E+08
-.10818E+08
</weights>
</event>
<event>
      7  10001  1.11453E+07  1.76250E+00 -1.00000E+00  3.79148E-01
      21    -1     0     0   511   501  0.000000000E+00  0.000000000E+00  9.542040815E+01  9.542040815E+01  0.000000000E+00  0.00000E+00  9.000E+00
       2    -1     0     0   501     0  0.000000000E+00  0.000000000E+00 -1.786938765E+00  1.786938765E+00  0.000000000E+00  0.00000E+00  9.000E+00
      23     2     1     2     0     0 -2.504335905E-01  6.947580520E-01 -1.155958222E+00  1.702258080E+00  1.007986819E+00  0.00000E+00  9.000E+00
      11     1     3     3     0     0 -5.121159116E-02 -2.196961464E-01 -5.308421678E-01  5.767865221E-01  5.110000000E-04  0.00000E+00  9.000E+00
     -11     1     3     3     0     0 -1.992219993E-01  9.144541983E-01 -6.251160544E-01  1.125471558E+00  5.110000000E-04  0.00000E+00  9.000E+00
       2     1     1     2   502     0 -1.510726543E+00 -7.635082568E-01  1.700104419E+00  2.399082029E+00  0.000000000E+00  0.00000E+00  9.000E+00
      21     1     1     2   511   502  1.761160133E+00  6.875020477E-02  9.308932319E+01  9.310600681E+01  0.000000000E+00  0.00000E+00  9.000E+00
#rwgt            1          17   2593296.1973296432                3     7356182           0
<weights>
0.11145E+08
0.13275E+08
0.90428E+07
0.12668E+08
0.93031E+07
0.11415E+08
0.10464E+08
0.10970E+08
0.11333E+08
0.10826E+08
0.10781E+08
0.10999E+08
0.10935E+08
0.10831E+08
0.10797E+08
0.11133E+08
0.11371E+08
0.11489E+08
0.11516E+08
0.11503E+08
0.11468E+08
0.11543E+08
0.11527E+08
0.11435E+08
0.11307E+08
0.11391E+08
0.11085E+08
0.11553E+08
0.11263E+08
0.11539E+08
0.11526E+08
0.11161E+08
0.11250E+08
0.11125E+08
0.11208E+08
0.10950E+08
0.11376E+08
0.11191E+08
0.11018E+08
0.11167E+08
0.11123E+08
0.11237E+08
0.11048E+08
0.11524E+08
0.10800E+08
</weights>
</event>
<event>
      6  10001 -1.11453E+07  8.94427E-01 -1.00000E+00  1.79753E-01
      -2    -1     0     0     0   502  0.000000000E+00  0.000000000E+00  2.501660983E+02  2.501660983E+02  0.000000000E+00  0.00000E+00  9.000E+00
       2    -1     0     0   501     0  0.000000000E+00  0.000000000E+00 -7.373930866E-03  7.373930866E-03  0.000000000E+00  0.00000E+00  9.000E+00
      23     2     1     2     0     0  1.157577269E-01  2.286224606E-01  2.264258519E+02  2.264392163E+02  2.446755031E+00  0.00000E+00  9.000E+00
      11     1     3     3     0     0 -1.148548112E-02 -1.032059343E+00  1.431997600E+02  1.432034795E+02  5.110000000E-04  0.00000E+00  9.000E+00
     -11     1     3     3     0     0  1.272432080E-01  1.260681803E+00  8.322609191E+01  8.323573683E+01  5.110000000E-04  0.00000E+00  9.000E+00
      21     1     1     2   501   502 -1.157577269E-01 -2.286224606E-01  2.373287247E+01  2.373425591E+01  4.768371582E-07  0.00000E+00  9.000E+00
#rwgt            1           8  -327704.79278079880                3     7362483           0
<weights>
-.11144E+08
-.12179E+08
-.98643E+07
-.14810E+08
-.79041E+07
-.91642E+07
-.13907E+08
-.11154E+08
-.11140E+08
-.10816E+08
-.10802E+08
-.10959E+08
-.10998E+08
-.10832E+08
-.10813E+08
-.11223E+08
-.11218E+08
-.11470E+08
-.11511E+08
-.11498E+08
-.11447E+08
-.11511E+08
-.11528E+08
-.11423E+08
-.11326E+08
-.11291E+08
-.11349E+08
-.11445E+08
-.11375E+08
-.11491E+08
-.11523E+08
-.11183E+08
-.11217E+08
-.11135E+08
-.11178E+08
-.11195E+08
-.11113E+08
-.11143E+08
-.11070E+08
-.11168E+08
-.11124E+08
-.11187E+08
-.11099E+08
-.11513E+08
-.10804E+08
</weights>
</event>
<event>
      7  10001  1.11453E+07  1.89682E+00 -1.00000E+00  3.64087E-01
      -2    -1     0     0     0   502  0.000000000E+00  0.000000000E+00  3.862685011E+00  3.862685011E+00  0.000000000E+00  0.00000E+00  9.000E+00
      21    -1     0     0   502   511  0.000000000E+00  0.000000000E+00 -1.075518695E+01  1.075518695E+01  0.000000000E+00  0.00000E+00  9.000E+00
      23     2     1     2     0     0  6.048087872E-01 -7.632671532E-01  3.020712119E+00  3.437996665E+00  1.321646301E+00  0.00000E+00  9.000E+00
      11     1     3     3     0     0 -3.594443892E-01  3.859568275E-02  4.461192264E-01  5.742059917E-01  5.110000000E-04  0.00000E+00  9.000E+00
     -11     1     3     3     0     0  9.642531764E-01 -8.018628359E-01  2.574592892E+00  2.863790673E+00  5.110000000E-04  0.00000E+00  9.000E+00
      -2     1     1     2     0   501 -1.541167710E+00  2.412864986E+00 -7.950826399E+00  8.450606829E+00  0.000000000E+00  0.00000E+00  9.000E+00
      21     1     1     2   501   511  9.363589229E-01 -1.649597833E+00 -1.962387658E+00  2.729268467E+00  5.575503985E-08  0.00000E+00  9.000E+00
#rwgt            1           7   3842975.5628455123                3     7362919           0
<weights>
0.11145E+08
0.11663E+08
0.10490E+08
0.12662E+08
0.94612E+07
0.10226E+08
0.12289E+08
0.11217E+08
0.11070E+08
0.10821E+08
0.10835E+08
0.10953E+08
0.11028E+08
0.10847E+08
0.10842E+08
0.11227E+08
0.11199E+08
0.11451E+08
0.11464E+08
0.11462E+08
0.11426E+08
0.11472E+08
0.11512E+08
0.11296E+08
0.11390E+08
0.11343E+08
0.11079E+08
0.11424E+08
0.11325E+08
0.11440E+08
0.11487E+08
0.11169E+08
0.11223E+08
0.11139E+08
0.11171E+08
0.11260E+08
0.11047E+08
0.11037E+08
0.11148E+08
0.11156E+08
0.11137E+08
0.11172E+08
0.11117E+08
0.11490E+08
0.10826E+08
</weights>
</event>
<event>
      6  10001 -1.11453E+07  8.94427E-01 -1.00000E+00  4.42526E-01
      21    -1     0     0   502   501  0.000000000E+00  0.000000000E+00  4.526750191E-03  4.526750191E-03  0.000000000E+00  0.00000E+00  9.000E+00
       1    -1     0     0   501     0  0.000000000E+00  0.000000000E+00 -5.665086108E+02  5.665086108E+02  0.000000000E+00  0.00000E+00  9.000E+00
      23     2     1     2     0     0  3.603536291E-01 -1.336230862E-01 -5.524113577E+02  5.524151715E+02  2.016411025E+00  0.00000E+00  9.000E+00
      11     1     3     3     0     0 -9.596193516E-02 -6.941227711E-01 -4.731424861E+02  4.731430050E+02  5.110000000E-04  0.00000E+00  9.000E+00
     -11     1     3     3     0     0  4.563155643E-01  5.604996849E-01 -7.926887156E+01  7.927216651E+01  5.110000000E-04  0.00000E+00  9.000E+00
       1     1     1     2   502     0 -3.603536291E-01  1.336230862E-01 -1.409272643E+01  1.409796610E+01  0.000000000E+00  0.00000E+00  9.000E+00
#rwgt            1          16  -6878000.1945749270                3     7414971           0
<weights>
-.11145E+08
-.11260E+08
-.10925E+08
-.13685E+08
-.87541E+07
-.91702E+07
-.13910E+08
-.11344E+08
-.10960E+08
-.11037E+08
-.11383E+08
-.12287E+08
-.10012E+08
-.11165E+08
-.11177E+08
-.10346E+08
-.12006E+08
-.98157E+07
-.12906E+08
-.13242E+08
-.96192E+07
-.11230E+08
-.10978E+08
-.11738E+08
-.10479E+08
-.10120E+08
-.11785E+08
-.12828E+08
-.92948E+07
-.11398E+08
-.10919E+08
-.10914E+08
-.11377E+08
-.98049E+07
-.12719E+08
-.11146E+08
-.11145E+08
-.11123E+08
-.11192E+08
-.11393E+08
-.10923E+08
-.11137E+08
-.11152E+08
-.11112E+08
-.11180E+08
</weights>
</event>
<event>
      7  10001  1.11453E+07  1.29285E+00 -1.00000E+00  4.72353E-01
       1    -1     0     0   501     0  0.000000000E+00  0.000000000E+00  2.573317609E+01  2.573317609E+01  0.000000000E+00  0.00000E+00  9.000E+00
       2    -1     0     0   502     0  0.000000000E+00  0.000000000E+00 -2.889492525E-01  2.889492525E-01  0.000000000E+00  0.00000E+00  9.000E+00
      23     2     1     2     0     0 -7.848203629E-01 -3.069112285E-01  2.101923677E+01  2.108585066E+01  1.447289287E+00  0.00000E+00  9.000E+00
      11     1     3     3     0     0  9.889953585E-02 -2.098521854E-01  1.495439003E+01  1.495618937E+01  5.110000000E-04  0.00000E+00  9.000E+00
     -11     1     3     3     0     0 -8.837198988E-01 -9.705904319E-02  6.064846734E+00  6.129661287E+00  5.110000000E-04  0.00000E+00  9.000E+00
       1     1     1     2   502     0  1.247461522E-01 -8.047390261E-01  2.393911182E+00  2.528631498E+00  0.000000000E+00  0.00000E+00  9.000E+00
       2     1     1     2   501     0  6.600742107E-01  1.111650255E+00  2.031078884E+00  2.407643181E+00  0.000000000E+00  0.00000E+00  9.000E+00
#rwgt            1          22   366675.73283248243                3     7415693           0
<weights>
0.11145E+08
0.14530E+08
0.77560E+07
0.12983E+08
0.90065E+07
0.12208E+08
0.92458E+07
0.11135E+08
0.11160E+08
0.10743E+08
0.10692E+08
0.10931E+08
0.10938E+08
0.10745E+08
0.10708E+08
0.11238E+08
0.11274E+08
0.11577E+08
0.11651E+08
0.11630E+08
0.11546E+08
0.11645E+08
0.11646E+08
0.11588E+08
0.11336E+08
0.11314E+08
0.11589E+08
0.11558E+08
0.11479E+08
0.11635E+08
0.11656E+08
0.11222E+08
0.11222E+08
0.11128E+08
0.11201E+08
0.11176E+08
0.11140E+08
0.11280E+08
0.10935E+08
0.11204E+08
0.11094E+08
0.11206E+08
0.11082E+08
0.11628E+08
0.10707E+08
</weights>
</event>
<event>
      6  10001 -1.11453E+07  8.94427E-01 -1.00000E+00  6.03652E-01
      21    -1     0     0   502   501  0.000000000E+00  0.000000000E+00  5.258112843E-03  5.258112843E-03  0.000000000E+00  0.00000E+00  9.000E+00
       2    -1     0     0   501     0  0.000000000E+00  0.000000000E+00 -3.615861233E+02  3.615861233E+02  0.000000000E+00  0.00000E+00  9.000E+00
      23     2     1     2     0     0 -6.973459003E-02 -3.453578931E-01 -3.447480384E+02  3.447548677E+02  2.141194817E+00  0.00000E+00  9.000E+00
      11     1     3     3     0     0  2.599815984E-01  8.380878909E-01 -1.863152044E+02  1.863172707E+02  5.110000000E-04  0.00000E+00  9.000E+00
     -11     1     3     3     0     0 -3.297161884E-01 -1.183445784E+00 -1.584328340E+02  1.584375970E+02  5.110000000E-04  0.00000E+00  9.000E+00
       2     1     1     2   502     0  6.973459003E-02  3.453578931E-01 -1.683282682E+01  1.683651371E+01  0.000000000E+00  0.00000E+00  9.000E+00
#rwgt            1          17  -20932344.992260598                3     7419411           0
<weights>
-.11145E+08
-.11480E+08
-.10702E+08
-.13952E+08
-.85746E+07
-.91702E+07
-.13910E+08
-.11128E+08
-.11162E+08
-.11168E+08
-.11157E+08
-.11023E+08
-.11288E+08
-.11161E+08
-.11158E+08
-.11327E+08
-.10873E+08
-.11397E+08
-.10767E+08
-.10717E+08
-.11425E+08
-.11105E+08
-.11164E+08
-.11093E+08
-.11152E+08
-.11261E+08
-.11068E+08
-.10843E+08
-.11454E+08
-.11079E+08
-.11173E+08
-.11023E+08
-.11264E+08
-.11414E+08
-.10808E+08
-.11114E+08
-.11172E+08
-.11159E+08
-.11135E+08
-.11223E+08
-.11075E+08
-.11143E+08
-.11147E+08
-.11127E+08
-.11163E+08
</weights>
</event>
<event>
      6  10001  1.11453E+07  8.94427E-01 -1.00000E+00  6.05757E-01
      -4    -1     0     0     0   502  0.000000000E+00  0.000000000E+00  2.469557871E+00  2.469557871E+00  0.000000000E+00  0.00000E+00  9.000E+00
      21    -1     0     0   502   501  0.000000000E+00  0.000000000E+00 -4.127405353E+00  4.127405353E+00  0.000000000E+00  0.00000E+00  9.000E+00
      23     2     1     2     0     0  1.571363601E+00  1.783440063E+00  1.102289308E+00  2.954409570E+00  1.365156463E+00  0.00000E+00  9.000E+00
      11     1     3     3     0     0  1.417777169E+00  1.878618985E+00  1.298225058E+00  2.687878337E+00  5.110000000E-04  0.00000E+00  9.000E+00
     -11     1     3     3     0     0  1.535864316E-01 -9.517892219E-02 -1.959357500E-01  2.665312335E-01  5.110000000E-04  0.00000E+00  9.000E+00
      -4     1     1     2     0   501 -1.571363601E+00 -1.783440063E+00 -2.760136789E+00  3.642553654E+00  0.000000000E+00  0.00000E+00  9.000E+00
#rwgt            1           3   1143804.7889794544                3     7423096           0
<weights>
0.11145E+08
0.13228E+08
0.89811E+07
0.12768E+08
0.92211E+07
0.11350E+08
0.10563E+08
0.11212E+08
0.11074E+08
0.10752E+08
0.10740E+08
0.10923E+08
0.10979E+08
0.10769E+08
0.10751E+08
0.11243E+08
0.11238E+08
0.11547E+08
0.11559E+08
0.11557E+08
0.11514E+08
0.11585E+08
0.11609E+08
0.11388E+08
0.11414E+08
0.11371E+08
0.11122E+08
0.11523E+08
0.11403E+08
0.11558E+08
0.11598E+08
0.11197E+08
0.11228E+08
0.11132E+08
0.11188E+08
0.11253E+08
0.11058E+08
0.11132E+08
0.11049E+08
0.11183E+08
0.11114E+08
0.11185E+08
0.11104E+08
0.11588E+08
0.10739E+08
</weights>
</event>
<event>
      6  10001 -1.11453E+07  8.94427E-01 -1.00000E+00  4.37188E-01
      21    -1     0     0   502   501  0.000000000E+00  0.000000000E+00  2.506697381E-02  2.506697381E-02  0.000000000E+00  0.00000E+00  9.000E+00
       2    -1     0     0   501     0  0.000000000E+00  0.000000000E+00 -2.298996363E+02  2.298996363E+02  0.000000000E+00  0.00000E+00  9.000E+00
      23     2     1     2     0     0  3.622627631E-01 -7.865029944E-02 -2.265006255E+02  2.265304557E+02  3.657396906E+00  0.00000E+00  9.000E+00
      11     1     3     3     0     0  9.785584930E-02  1.787887202E+00 -1.086651806E+02  1.086799319E+02  5.110000000E-04  0.00000E+00  9.000E+00
     -11     1     3     3     0     0  2.644069138E-01 -1.866537502E+00 -1.178354450E+02  1.178505238E+02  5.110000000E-04  0.00000E+00  9.000E+00
       2     1     1     2   502     0 -3.622627631E-01  7.865029944E-02 -3.373943775E+00  3.394247601E+00  0.000000000E+00  0.00000E+00  9.000E+00
#rwgt            1          17  -32896486.085916638                3     7468972           0
<weights>
-.11145E+08
-.12178E+08
-.99249E+07
-.14801E+08
-.79524E+07
-.91702E+07
-.13910E+08
-.11128E+08
-.11161E+08
-.11172E+08
-.11167E+08
-.11087E+08
-.11218E+08
-.11169E+08
-.11167E+08
-.11322E+08
-.10871E+08
-.11263E+08
-.10921E+08
-.10897E+08
-.11275E+08
-.11103E+08
-.11144E+08
-.11167E+08
-.11071E+08
-.11148E+08
-.11133E+08
-.10999E+08
-.11245E+08
-.11099E+08
-.11143E+08
-.11051E+08
-.11231E+08
-.11258E+08
-.10993E+08
-.11136E+08
-.11150E+08
-.11171E+08
-.11120E+08
-.11172E+08
-.11119E+08
-.11162E+08
-.11127E+08
-.11119E+08
-.11170E+08
</weights>
</event>
<event>
      7  10001  1.11453E+07  2.92691E+00 -1.00000E+00  2.95389E-01
       3    -1     0     0   501     0  0.000000000E+00  0.000000000E+00  3.464293938E+00  3.464293938E+00  0.000000000E+00  0.00000E+00  9.000E+00
      -3    -1     0     0     0   501  0.000000000E+00  0.000000000E+00 -5.584908710E+02  5.584908710E+02  0.000000000E+00  0.00000E+00  9.000E+00
      23     2     1     2     0     0  4.022637850E-01 -3.104273810E-01  1.589915047E+00  2.153139885E+00  1.360147124E+00  0.00000E+00  9.000E+00
      11     1     3     3     0     0  7.359999427E-01  1.923829330E-01  1.242247273E+00  1.456669371E+00  5.110000000E-04  0.00000E+00  9.000E+00
     -11     1     3     3     0     0 -3.337361577E-01 -5.028103140E-01  3.476677735E-01  6.964705138E-01  5.110000000E-04  0.00000E+00  9.000E+00
       3     1     1     2   502     0 -4.222734865E-01  3.237265395E+00 -8.804073840E-02  3.265877111E+00  0.000000000E+00  0.00000E+00  9.000E+00
      -3     1     1     2     0   502  2.000970155E-02 -2.926838014E+00 -5.565284514E+02  5.565361480E+02  0.000000000E+00  0.00000E+00  9.000E+00
#rwgt            1          26   243311.67238361354                3     7469136           0
<weights>
0.11145E+08
0.12883E+08
0.93467E+07
0.12749E+08
0.92465E+07
0.11072E+08
0.10991E+08
0.11194E+08
0.11092E+08
0.10788E+08
0.10770E+08
0.10941E+08
0.10991E+08
0.10802E+08
0.10781E+08
0.11235E+08
0.11230E+08
0.11514E+08
0.11531E+08
0.11526E+08
0.11485E+08
0.11553E+08
0.11571E+08
0.11396E+08
0.11374E+08
0.11338E+08
0.11180E+08
0.11491E+08
0.11391E+08
0.11532E+08
0.11565E+08
0.11197E+08
0.11219E+08
0.11131E+08
0.11187E+08
0.11231E+08
0.11079E+08
0.11160E+08
0.11042E+08
0.11179E+08
0.11117E+08
0.11185E+08
0.11104E+08
0.11552E+08
0.10773E+08
</weights>
</event>
<event>
      6  10001  1.11453E+07  8.94427E-01 -1.00000E+00  5.99169E-01
       2    -1     0     0   501     0  0.000000000E+00  0.000000000E+00  1.994456018E+00  1.994456018E+00  0.000000000E+00  0.00000E+00  9.000E+00
      -2    -1     0     0     0   502  0.000000000E+00  0.000000000E+00 -2.410312206E+00  2.410312206E+00  0.000000000E+00  0.00000E+00  9.000E+00
      23     2     1     2     0     0  4.148904582E-01  3.435582439E-01  1.474871830E+00  2.438803118E+00  1.866104867E+00  0.00000E+00  9.000E+00
      11     1     3     3     0     0 -4.565215184E-01 -2.058496427E-01  1.301037870E+00  1.394089585E+00  5.110000000E-04  0.00000E+00  9.000E+00
     -11     1     3     3     0     0  8.714119766E-01  5.494078866E-01  1.738339601E-01  1.044713533E+00  5.110000000E-04  0.00000E+00  9.000E+00
      21     1     1     2   501   502 -4.148904582E-01 -3.435582439E-01 -1.890728018E+00  1.965965106E+00  0.000000000E+00  0.00000E+00  9.000E+00
#rwgt            1          23   517290.90320769895                3     7472097           0
<weights>
0.11145E+08
0.12192E+08
0.10096E+08
0.12235E+08
0.96640E+07
0.10858E+08
0.11319E+08
0.11057E+08
0.11236E+08
0.10831E+08
0.10802E+08
0.10978E+08
0.10974E+08
0.10841E+08
0.10815E+08
0.11173E+08
0.11296E+08
0.11494E+08
0.11462E+08
0.11448E+08
0.11475E+08
0.11514E+08
0.11518E+08
0.11400E+08
0.11313E+08
0.11384E+08
0.11079E+08
0.11486E+08
0.11301E+08
0.11500E+08
0.11512E+08
0.11152E+08
0.11251E+08
0.11151E+08
0.11168E+08
0.11031E+08
0.11288E+08
0.11146E+08
0.11059E+08
0.11168E+08
0.11123E+08
0.11219E+08
0.11067E+08
0.11507E+08
0.10813E+08
</weights>
</event>
<event>
      7  10001  1.11453E+07  3.09321E+00 -1.00000E+00  2.88496E-01
       2    -1     0     0   501     0  0.000000000E+00  0.000000000E+00  6.991372919E-02  6.991372919E-02  0.000000000E+00  0.00000E+00  9.000E+00
      21    -1     0     0   502   501  0.000000000E+00  0.000000000E+00 -5.585693908E+01  5.585693908E+01  0.000000000E+00  0.00000E+00  9.000E+00
      23     2     1     2     0     0  4.731972129E-01  2.553494303E-01 -1.552089149E+01  1.557272586E+01  1.150043106E+00  0.00000E+00  9.000E+00
      11     1     3     3     0     0 -3.786980150E-01 -4.462000238E-03 -4.512820962E+00  4.528684730E+00  5.110000000E-04  0.00000E+00  9.000E+00
     -11     1     3     3     0     0  8.518952279E-01  2.598114306E-01 -1.100807053E+01  1.104404113E+01  5.110000000E-04  0.00000E+00  9.000E+00
       2     1     1     2   511     0  2.355209179E-01  6.886066579E-01 -3.809808327E+00  3.878696781E+00  0.000000000E+00  0.00000E+00  9.000E+00
      21     1     1     2   502   511 -7.087181308E-01 -9.439560882E-01 -3.645632554E+01  3.647543017E+01  4.768371582E-07  0.00000E+00  9.000E+00
#rwgt            2         248   2825202.2900120239                3     7478092           0
<weights>
0.11145E+08
0.10781E+08
0.11409E+08
0.13103E+08
0.91414E+07
0.91702E+07
0.13910E+08
0.11205E+08
0.11086E+08
0.11027E+08
0.11092E+08
0.11030E+08
0.11180E+08
0.11085E+08
0.11096E+08
0.11178E+08
0.11089E+08
0.11188E+08
0.11166E+08
0.11161E+08
0.11189E+08
0.11178E+08
0.11189E+08
0.11121E+08
0.11231E+08
0.11208E+08
0.11086E+08
0.11166E+08
0.11125E+08
0.11135E+08
0.11182E+08
0.11100E+08
0.11204E+08
0.11158E+08
0.11130E+08
0.11256E+08
0.11044E+08
0.10879E+08
0.11437E+08
0.11076E+08
0.11209E+08
0.11129E+08
0.11163E+08
0.11217E+08
0.11066E+08
</weights>
</event>
<event>
      6  10001 -1.11453E+07  8.94427E-01 -1.00000E+00  3.93140E-01
       4    -1     0     0   501     0  0.000000000E+00  0.000000000E+00  4.038862123E+02  4.038862123E+02  0.000000000E+00  0.00000E+00  9.000E+00
      21    -1     0     0   502   501  0.000000000E+00  0.000000000E+00 -3.068661772E-03  3.068661772E-03  0.000000000E+00  0.00000E+00  9.000E+00
      23     2     1     2     0     0  8.878358086E-02 -5.980339220E-01  3.595628558E+02  3.595648696E+02  1.040511288E+00  0.00000E+00  9.000E+00
      11     1     3     3     0     0  3.931134351E-01 -4.524282072E-01  3.204031453E+02  3.204037059E+02  5.110000000E-04  0.00000E+00  9.000E+00
     -11     1     3     3     0     0 -3.043298542E-01 -1.456057148E-01  3.915971044E+01  3.916116367E+01  5.110000000E-04  0.00000E+00  9.000E+00
       4     1     1     2   502     0 -8.878358086E-02  5.980339220E-01  4.432028783E+01  4.432441134E+01  0.000000000E+00  0.00000E+00  9.000E+00
#rwgt            1          28  -520919.40916767606                3     7478818           0
<weights>
-.11145E+08
-.11732E+08
-.10316E+08
-.14268E+08
-.82661E+07
-.91648E+07
-.13909E+08
-.11181E+08
-.11109E+08
-.10837E+08
-.10834E+08
-.10967E+08
-.11019E+08
-.10858E+08
-.10844E+08
-.11224E+08
-.11199E+08
-.11443E+08
-.11476E+08
-.11466E+08
-.11421E+08
-.11477E+08
-.11499E+08
-.11375E+08
-.11329E+08
-.11284E+08
-.11284E+08
-.11414E+08
-.11353E+08
-.11452E+08
-.11489E+08
-.11177E+08
-.11216E+08
-.11139E+08
-.11174E+08
-.11216E+08
-.11092E+08
-.11107E+08
-.11109E+08
-.11160E+08
-.11133E+08
-.11181E+08
-.11108E+08
-.11485E+08
-.10832E+08
</weights>
</event>
<event>
      6  10001 -1.11453E+07  8.94427E-01 -1.00000E+00  4.41953E-01
      21    -1     0     0   502   501  0.000000000E+00  0.000000000E+00  2.363679113E-02  2.363679113E-02  0.000000000E+00  0.00000E+00  9.000E+00
       2    -1     0     0   501     0  0.000000000E+00  0.000000000E+00 -5.681978608E+01  5.681978608E+01  0.000000000E+00  0.00000E+00  9.000E+00
      23     2     1     2     0     0  7.737792425E-02  4.939155492E-01 -5.198440127E+01  5.200577273E+01  1.404450674E+00  0.00000E+00  9.000E+00
      11     1     3     3     0     0  6.971048698E-01  4.842980187E-01 -3.433911325E+01  3.434960260E+01  5.110000000E-04  0.00000E+00  9.000E+00
     -11     1     3     3     0     0 -6.197269456E-01  9.617530420E-03 -1.764528802E+01  1.765617012E+01  5.110000000E-04  0.00000E+00  9.000E+00
       2     1     1     2   502     0 -7.737792425E-02 -4.939155492E-01 -4.811748021E+00  4.837650146E+00  0.000000000E+00  0.00000E+00  9.000E+00
#rwgt            1          17  -13028030.360689767                3     7479298           0
<weights>
-.11144E+08
-.12969E+08
-.91076E+07
-.15762E+08
-.72975E+07
-.91689E+07
-.13908E+08
-.11179E+08
-.11109E+08
-.11091E+08
-.11127E+08
-.11154E+08
-.11068E+08
-.11121E+08
-.11126E+08
-.11112E+08
-.11166E+08
-.11067E+08
-.11272E+08
-.11283E+08
-.11059E+08
-.11159E+08
-.11152E+08
-.11234E+08
-.11078E+08
-.11096E+08
-.11162E+08
-.11292E+08
-.10929E+08
-.11161E+08
-.11138E+08
-.11140E+08
-.11149E+08
-.11066E+08
-.11248E+08
-.11122E+08
-.11163E+08
-.11047E+08
-.11250E+08
-.11079E+08
-.11196E+08
-.11204E+08
-.11080E+08
-.11169E+08
-.11114E+08
</weights>
</event>
<event>
      7  10001  1.11453E+07  5.81050E+00 -1.00000E+00  2.26514E-01
      21    -1     0     0   502   511  0.000000000E+00  0.000000000E+00  7.112560106E+01  7.112560106E+01  0.000000000E+00  0.00000E+00  9.000E+00
      -4    -1     0     0     0   502  0.000000000E+00  0.000000000E+00 -1.968463763E+01  1.968463763E+01  0.000000000E+00  0.00000E+00  9.000E+00
      23     2     1     2     0     0 -1.780188175E+00 -5.895168504E-02 -1.389391398E+01  1.418449195E+01  2.233029529E+00  0.00000E+00  9.000E+00
      11     1     3     3     0     0 -6.713694731E-01 -9.906934389E-01 -3.713607080E+00  3.901677622E+00  5.110000000E-04  0.00000E+00  9.000E+00
     -11     1     3     3     0     0 -1.108818701E+00  9.317417539E-01 -1.018030690E+01  1.028281433E+01  5.110000000E-04  0.00000E+00  9.000E+00
      -4     1     1     2     0   501 -2.851898498E+00 -3.448998028E+00 -4.618695384E+00  6.431271996E+00  0.000000000E+00  0.00000E+00  9.000E+00
      21     1     1     2   501   511  4.632086673E+00  3.507949713E+00  6.995357279E+01  7.019447474E+01  1.348699152E-06  0.00000E+00  9.000E+00
#rwgt            1          12   1151372.8218784176                3     7480169           0
<weights>
0.11145E+08
0.13647E+08
0.86512E+07
0.12586E+08
0.93868E+07
0.11806E+08
0.98632E+07
0.11260E+08
0.11027E+08
0.10700E+08
0.10744E+08
0.10881E+08
0.11002E+08
0.10735E+08
0.10747E+08
0.11226E+08
0.11255E+08
0.11537E+08
0.11594E+08
0.11591E+08
0.11508E+08
0.11564E+08
0.11651E+08
0.11309E+08
0.11523E+08
0.11495E+08
0.10997E+08
0.11534E+08
0.11338E+08
0.11511E+08
0.11586E+08
0.11153E+08
0.11269E+08
0.11148E+08
0.11164E+08
0.11341E+08
0.10975E+08
0.10911E+08
0.11225E+08
0.11160E+08
0.11135E+08
0.11163E+08
0.11128E+08
0.11604E+08
0.10720E+08
</weights>
</event>
<event>
      6  10001 -1.11453E+07  8.94427E-01 -1.00000E+00  3.58000E-01
      21    -1     0     0   502   501  0.000000000E+00  0.000000000E+00  5.507499797E-03  5.507499797E-03  0.000000000E+00  0.00000E+00  9.000E+00
       2    -1     0     0   501     0  0.000000000E+00  0.000000000E+00 -4.153941802E+02  4.153941802E+02  0.000000000E+00  0.00000E+00  9.000E+00
      23     2     1     2     0     0 -7.735664061E-01 -4.143243663E-01 -3.611133092E+02  3.611172306E+02  1.435987073E+00  0.00000E+00  9.000E+00
      11     1     3     3     0     0 -8.078705147E-01 -8.918665389E-01 -2.631517625E+02  2.631545139E+02  5.110000000E-04  0.00000E+00  9.000E+00
     -11     1     3     3     0     0  3.430410861E-02  4.775421726E-01 -9.796154672E+01  9.796271668E+01  5.110000000E-04  0.00000E+00  9.000E+00
       2     1     1     2   502     0  7.735664061E-01  4.143243663E-01 -5.427536347E+01  5.428245711E+01  0.000000000E+00  0.00000E+00  9.000E+00
#rwgt            1          17  -29749684.375300217                3     7484733           0
<weights>
-.11145E+08
-.11484E+08
-.10702E+08
-.13957E+08
-.85747E+07
-.91702E+07
-.13910E+08
-.11129E+08
-.11161E+08
-.11166E+08
-.11154E+08
-.11005E+08
-.11306E+08
-.11159E+08
-.11155E+08
-.11313E+08
-.10894E+08
-.11433E+08
-.10726E+08
-.10669E+08
-.11466E+08
-.11106E+08
-.11168E+08
-.11071E+08
-.11178E+08
-.11298E+08
-.11046E+08
-.10798E+08
-.11513E+08
-.11074E+08
-.11181E+08
-.11021E+08
-.11267E+08
-.11461E+08
-.10753E+08
-.11106E+08
-.11180E+08
-.11153E+08
-.11142E+08
-.11237E+08
-.11062E+08
-.11139E+08
-.11152E+08
-.11130E+08
-.11161E+08
</weights>
</event>
<event>
      6  10001 -1.11453E+07  8.94427E-01 -1.00000E+00  5.87573E-01
      21    -1     0     0   502   501  0.000000000E+00  0.000000000E+00  3.986795580E-03  3.986795580E-03  0.000000000E+00  0.00000E+00  9.000E+00
       2    -1     0     0   501     0  0.000000000E+00  0.000000000E+00 -4.611111308E+02  4.611111308E+02  0.000000000E+00  0.00000E+00  9.000E+00
      23     2     1     2     0     0  2.451308372E-01 -3.965584181E-01 -4.280220144E+02  4.280267035E+02  1.948520897E+00  0.00000E+00  9.000E+00
      11     1     3     3     0     0  2.541415517E-01  2.175815864E-01 -1.321477289E+01  1.321900724E+01  5.110000000E-04  0.00000E+00  9.000E+00
     -11     1     3     3     0     0 -9.010714488E-03 -6.141400045E-01 -4.148072415E+02  4.148076962E+02  5.110000000E-04  0.00000E+00  9.000E+00
       2     1     1     2   502     0 -2.451308372E-01  3.965584181E-01 -3.308512959E+01  3.308841410E+01  0.000000000E+00  0.00000E+00  9.000E+00
#rwgt            1          17  -20293426.563752424                3     7485343           0
<weights>
-.11145E+08
-.11961E+08
-.10161E+08
-.14537E+08
-.81414E+07
-.91702E+07
-.13910E+08
-.11130E+08
-.11160E+08
-.11165E+08
-.11151E+08
-.10988E+08
-.11324E+08
-.11157E+08
-.11153E+08
-.11283E+08
-.10936E+08
-.11466E+08
-.10688E+08
-.10623E+08
-.11504E+08
-.11108E+08
-.11171E+08
-.11046E+08
-.11205E+08
-.11340E+08
-.11022E+08
-.10754E+08
-.11573E+08
-.11068E+08
-.11188E+08
-.11026E+08
-.11262E+08
-.11510E+08
-.10697E+08
-.11098E+08
-.11188E+08
-.11148E+08
-.11149E+08
-.11252E+08
-.11049E+08
-.11134E+08
-.11156E+08
-.11132E+08
-.11159E+08
</weights>
</event>
<event>
      7  10001  1.11453E+07  1.83481E+00 -1.00000E+00  3.70740E-01
       2    -1     0     0   501     0  0.000000000E+00  0.000000000E+00  2.561642895E+01  2.561642895E+01  0.000000000E+00  0.00000E+00  9.000E+00
       1    -1     0     0   502     0  0.000000000E+00  0.000000000E+00 -3.756459812E-01  3.756459812E-01  0.000000000E+00  0.00000E+00  9.000E+00
      23     2     1     2     0     0  3.350037536E-01 -6.127196402E-01  2.198811179E+00  2.519822550E+00  1.013450646E+00  0.00000E+00  9.000E+00
      11     1     3     3     0     0 -1.160710156E-01  1.428520825E-01  1.084191557E+00  1.099704865E+00  5.110000000E-04  0.00000E+00  9.000E+00
     -11     1     3     3     0     0  4.510747692E-01 -7.555717227E-01  1.114619622E+00  1.420117685E+00  5.110000000E-04  0.00000E+00  9.000E+00
       2     1     1     2   502     0  1.267454469E+00  1.506387003E+00  1.799025473E+01  1.809764924E+01  0.000000000E+00  0.00000E+00  9.000E+00
       1     1     1     2   501     0 -1.602458222E+00 -8.936673631E-01  5.051717063E+00  5.374603148E+00  0.000000000E+00  0.00000E+00  9.000E+00
#rwgt            1          24   204339.61603002832                3     7486265           0
<weights>
0.11145E+08
0.12907E+08
0.10089E+08
0.64644E+07
0.13754E+08
0.15244E+08
0.45864E+07
0.11167E+08
0.11123E+08
0.10322E+08
0.10250E+08
0.10693E+08
0.10751E+08
0.10370E+08
0.10287E+08
0.11383E+08
0.11325E+08
0.12007E+08
0.12067E+08
0.12032E+08
0.11943E+08
0.12123E+08
0.12095E+08
0.11919E+08
0.11564E+08
0.11484E+08
0.11780E+08
0.11933E+08
0.11794E+08
0.12087E+08
0.12141E+08
0.11314E+08
0.11275E+08
0.11114E+08
0.11253E+08
0.11244E+08
0.11093E+08
0.11305E+08
0.10837E+08
0.11215E+08
0.11086E+08
0.11269E+08
0.11016E+08
0.12097E+08
0.10271E+08
</weights>
</event>
<event>
      6  10001 -1.11453E+07  8.94427E-01 -1.00000E+00  6.41367E-01
      21    -1     0     0   502   501  0.000000000E+00  0.000000000E+00  5.536553527E+01  5.536553527E+01  0.000000000E+00  0.00000E+00  9.000E+00
       4    -1     0     0   501     0  0.000000000E+00  0.000000000E+00 -2.430882456E-02  2.430882456E-02  0.000000000E+00  0.00000E+00  9.000E+00
      23     2     1     2     0     0  1.454131246E-01 -4.653014358E-01  4.721877744E+01  4.725277901E+01  1.724682723E+00  0.00000E+00  9.000E+00
      11     1     3     3     0     0 -1.886022089E-01  4.675203046E-01  3.080410968E+01  3.080823460E+01  5.110000000E-04  0.00000E+00  9.000E+00
     -11     1     3     3     0     0  3.340153335E-01 -9.328217404E-01  1.641466776E+01  1.644454440E+01  5.110000000E-04  0.00000E+00  9.000E+00
       4     1     1     2   502     0 -1.454131246E-01  4.653014358E-01  8.122449007E+00  8.137065090E+00  0.000000000E+00  0.00000E+00  9.000E+00
#rwgt            1          19  -565045.95591598947                3     7532352           0
<weights>
-.11145E+08
-.12858E+08
-.92175E+07
-.15626E+08
-.73854E+07
-.91717E+07
-.13910E+08
-.11170E+08
-.11122E+08
-.10811E+08
-.10795E+08
-.10957E+08
-.10997E+08
-.10826E+08
-.10806E+08
-.11228E+08
-.11220E+08
-.11480E+08
-.11523E+08
-.11510E+08
-.11456E+08
-.11523E+08
-.11539E+08
-.11430E+08
-.11333E+08
-.11294E+08
-.11358E+08
-.11454E+08
-.11387E+08
-.11503E+08
-.11535E+08
-.11190E+08
-.11217E+08
-.11136E+08
-.11182E+08
-.11206E+08
-.11104E+08
-.11155E+08
-.11061E+08
-.11172E+08
-.11123E+08
-.11188E+08
-.11101E+08
-.11524E+08
-.10798E+08
</weights>
</event>
<event>
      7  10001  1.11453E+07  5.81131E+00 -1.00000E+00  2.26505E-01
       2    -1     0     0   501     0  0.000000000E+00  0.000000000E+00  1.303761163E+00  1.303761163E+00  0.000000000E+00  0.00000E+00  9.000E+00
      21    -1     0     0   502   501  0.000000000E+00  0.000000000E+00 -8.600622832E+00  8.600622832E+00  0.000000000E+00  0.00000E+00  9.000E+00
      23     2     1     2     0     0  5.414294372E-02 -4.731383143E-01  7.685817761E-01  1.499397046E+00  1.196111296E+00  0.00000E+00  9.000E+00
      11     1     3     3     0     0 -9.135379288E-02 -5.072060355E-01  1.056226591E+00  1.175252463E+00  5.110000000E-04  0.00000E+00  9.000E+00
     -11     1     3     3     0     0  1.454967366E-01  3.406772110E-02 -2.876448154E-01  3.241445834E-01  5.110000000E-04  0.00000E+00  9.000E+00
       2     1     1     2   511     0  2.673311710E-01 -3.408667708E-01 -1.767001696E-01  4.678451243E-01  0.000000000E+00  0.00000E+00  9.000E+00
      21     1     1     2   502   511 -3.214741147E-01  8.140050852E-01 -7.888743275E+00  7.937141825E+00  1.460009660E-07  0.00000E+00  9.000E+00
#rwgt            2         248   1540959.0543962556                3     7536925           0
<weights>
0.11145E+08
0.10996E+08
0.11099E+08
0.13364E+08
0.88930E+07
0.91702E+07
0.13910E+08
0.11210E+08
0.11079E+08
0.10894E+08
0.10920E+08
0.10985E+08
0.11072E+08
0.10924E+08
0.10926E+08
0.11214E+08
0.11161E+08
0.11365E+08
0.11370E+08
0.11367E+08
0.11348E+08
0.11376E+08
0.11411E+08
0.11239E+08
0.11338E+08
0.11289E+08
0.11084E+08
0.11335E+08
0.11267E+08
0.11342E+08
0.11388E+08
0.11149E+08
0.11213E+08
0.11143E+08
0.11160E+08
0.11250E+08
0.11054E+08
0.11001E+08
0.11217E+08
0.11133E+08
0.11157E+08
0.11162E+08
0.11128E+08
0.11399E+08
0.10907E+08
</weights>
</event>
<event>
      6  10001 -1.11453E+07  8.94427E-01 -1.00000E+00  2.16078E-01
      21    -1     0     0   502   501  0.000000000E+00  0.000000000E+00  2.551189987E-03  2.551189987E-03  0.000000000E+00  0.00000E+00  9.000E+00
       2    -1     0     0   501     0  0.000000000E+00  0.000000000E+00 -2.963164331E+02  2.963164331E+02  0.000000000E+00  0.00000E+00  9.000E+00
      23     2     1     2     0     0 -3.069578377E-01  1.785882197E-01 -2.690774458E+02  2.690802330E+02  1.172120224E+00  0.00000E+00  9.000E+00
      11     1     3     3     0     0 -5.449414002E-01  4.996790714E-01 -2.167490596E+02  2.167503206E+02  5.110000000E-04  0.00000E+00  9.000E+00
     -11     1     3     3     0     0  2.379835625E-01 -3.210908517E-01 -5.232838616E+01  5.232991242E+01  5.110000000E-04  0.00000E+00  9.000E+00
       2     1     1     2   502     0  3.069578377E-01 -1.785882197E-01 -2.723643614E+01  2.723875127E+01  0.000000000E+00  0.00000E+00  9.000E+00
#rwgt            1          17  -28836446.568675566                3     7538354           0
<weights>
-.11145E+08
-.12551E+08
-.95542E+07
-.15254E+08
-.76553E+07
-.91702E+07
-.13910E+08
-.11127E+08
-.11162E+08
-.11170E+08
-.11161E+08
-.11051E+08
-.11258E+08
-.11164E+08
-.11162E+08
-.11334E+08
-.10859E+08
-.11339E+08
-.10833E+08
-.10794E+08
-.11360E+08
-.11104E+08
-.11156E+08
-.11127E+08
-.11115E+08
-.11209E+08
-.11098E+08
-.10911E+08
-.11363E+08
-.11088E+08
-.11160E+08
-.11032E+08
-.11253E+08
-.11344E+08
-.10890E+08
-.11125E+08
-.11162E+08
-.11166E+08
-.11126E+08
-.11200E+08
-.11094E+08
-.11151E+08
-.11139E+08
-.11123E+08
-.11166E+08
</weights>
</event>
<event>
      6  10001 -1.11453E+07  8.94427E-01 -1.00000E+00  6.04512E-01
      -4    -1     0     0     0   502  0.000000000E+00  0.000000000E+00  8.373459193E+01  8.373459193E+01  0.000000000E+00  0.00000E+00  9.000E+00
      21    -1     0     0   502   501  0.000000000E+00  0.000000000E+00 -1.684495402E-02  1.684495402E-02  0.000000000E+00  0.00000E+00  9.000E+00
      23     2     1     2     0     0  2.559501633E-01  3.397082666E-01  7.816933024E+01  7.818674098E+01  1.594165365E+00  0.00000E+00  9.000E+00
      11     1     3     3     0     0  2.737692609E-01  8.540813912E-01  2.714047159E+01  2.715528683E+01  5.110000000E-04  0.00000E+00  9.000E+00
     -11     1     3     3     0     0 -1.781909754E-02 -5.143731246E-01  5.102885865E+01  5.103145415E+01  5.110000000E-04  0.00000E+00  9.000E+00
      -4     1     1     2     0   501 -2.559501633E-01 -3.397082666E-01  5.548416739E+00  5.564695903E+00  0.000000000E+00  0.00000E+00  9.000E+00
#rwgt            1           3  -2318113.3936247560                3     7538931           0
<weights>
-.11145E+08
-.12741E+08
-.93735E+07
-.15495E+08
-.75108E+07
-.91652E+07
-.13909E+08
-.11177E+08
-.11114E+08
-.10833E+08
-.10828E+08
-.10965E+08
-.11015E+08
-.10852E+08
-.10838E+08
-.11225E+08
-.11203E+08
-.11448E+08
-.11485E+08
-.11475E+08
-.11426E+08
-.11484E+08
-.11506E+08
-.11388E+08
-.11328E+08
-.11284E+08
-.11313E+08
-.11420E+08
-.11359E+08
-.11460E+08
-.11497E+08
-.11179E+08
-.11216E+08
-.11139E+08
-.11175E+08
-.11213E+08
-.11096E+08
-.11114E+08
-.11102E+08
-.11162E+08
-.11132E+08
-.11183E+08
-.11106E+08
-.11491E+08
-.10827E+08
</weights>
</event>
<event>
      7  10001  1.11453E+07  8.94427E-01 -1.00000E+00  6.07649E-01
      -3    -1     0     0     0   502  0.000000000E+00  0.000000000E+00  7.409270497E-02  7.409270497E-02  0.000000000E+00  0.00000E+00  9.000E+00
       1    -1     0     0   502     0  0.000000000E+00  0.000000000E+00 -1.204258366E+03  1.204258366E+03  0.000000000E+00  0.00000E+00  9.000E+00
      23     2     1     2     0     0  2.370566659E+00  3.592403061E-01 -1.143660846E+03  1.143665814E+03  2.369312881E+00  0.00000E+00  9.000E+00
      11     1     3     3     0     0  9.616930852E-01  5.481163901E-01 -1.552815331E+02  1.552854784E+02  5.110000000E-04  0.00000E+00  9.000E+00
     -11     1     3     3     0     0  1.408873574E+00 -1.888760839E-01 -9.883793133E+02  9.883803355E+02  5.110000000E-04  0.00000E+00  9.000E+00
      -3     1     1     2     0   501 -2.166762791E+00 -6.805397083E-01 -1.815415005E+01  1.829565957E+01  0.000000000E+00  0.00000E+00  9.000E+00
       1     1     1     2   501     0 -2.038038680E-01  3.212994021E-01 -4.236927647E+01  4.237098486E+01  0.000000000E+00  0.00000E+00  9.000E+00
#rwgt            2          75   3788.7442319037996                3     7547955           0
<weights>
0.11145E+08
0.99332E+07
0.12522E+08
0.12073E+08
0.10034E+08
0.91702E+07
0.13910E+08
0.11488E+08
0.10828E+08
0.10825E+08
0.11642E+08
0.13776E+08
0.88054E+07
0.11156E+08
0.11147E+08
0.12932E+08
0.88409E+07
0.91581E+07
0.14105E+08
0.14770E+08
0.88406E+07
0.11235E+08
0.11008E+08
0.11972E+08
0.10259E+08
0.90476E+07
0.12608E+08
0.14990E+08
0.77093E+07
0.11658E+08
0.10758E+08
0.10736E+08
0.11572E+08
0.92659E+07
0.13484E+08
0.11044E+08
0.11239E+08
0.11036E+08
0.11297E+08
0.11502E+08
0.10834E+08
0.11076E+08
0.11218E+08
0.11134E+08
0.11158E+08
</weights>
</event>
<event>
      6  10001 -1.11453E+07  8.94427E-01 -1.00000E+00  3.93680E-01
      21    -1     0     0   502   501  0.000000000E+00  0.000000000E+00  2.440136946E-02  2.440136946E-02  0.000000000E+00  0.00000E+00  9.000E+00
       2    -1     0     0   501     0  0.000000000E+00  0.000000000E+00 -6.457289254E+01  6.457289254E+01  0.000000000E+00  0.00000E+00  9.000E+00
      23     2     1     2     0     0 -4.879170716E-01  2.773526832E-01 -5.958233503E+01  5.959952497E+01  1.316716070E+00  0.00000E+00  9.000E+00
      11     1     3     3     0     0 -7.390677235E-01  5.858007102E-01 -5.006501832E+01  5.007389982E+01  5.110000000E-04  0.00000E+00  9.000E+00
     -11     1     3     3     0     0  2.511506518E-01 -3.084480270E-01 -9.517316708E+00  9.525625145E+00  5.110000000E-04  0.00000E+00  9.000E+00
       2     1     1     2   502     0  4.879170716E-01 -2.773526832E-01 -4.966156142E+00  4.997768943E+00  0.000000000E+00  0.00000E+00  9.000E+00
#rwgt            1          17  -35508298.849451259                3     7548415           0
<weights>
-.11145E+08
-.12717E+08
-.94507E+07
-.15456E+08
-.75724E+07
-.91702E+07
-.13910E+08
-.11174E+08
-.11116E+08
-.11108E+08
-.11140E+08
-.11160E+08
-.11080E+08
-.11136E+08
-.11140E+08
-.11127E+08
-.11143E+08
-.11066E+08
-.11247E+08
-.11258E+08
-.11058E+08
-.11148E+08
-.11140E+08
-.11236E+08
-.11061E+08
-.11085E+08
-.11170E+08
-.11275E+08
-.10936E+08
-.11152E+08
-.11129E+08
-.11139E+08
-.11149E+08
-.11070E+08
-.11244E+08
-.11126E+08
-.11160E+08
-.11067E+08
-.11235E+08
-.11083E+08
-.11195E+08
-.11203E+08
-.11084E+08
-.11156E+08
-.11129E+08
</weights>
</event>
<event>
      6  10001  1.11453E+07  8.94427E-01 -1.00000E+00  5.12875E-01
       2    -1     0     0   501     0  0.000000000E+00  0.000000000E+00  4.731499017E-02  4.731499017E-02  0.000000000E+00  0.00000E+00  9.000E+00
      21    -1     0     0   502   501  0.000000000E+00  0.000000000E+00 -5.875583950E+01  5.875583950E+01  0.000000000E+00  0.00000E+00  9.000E+00
      23     2     1     2     0     0  5.815411325E-01  2.582070117E-02 -4.457777656E+01  4.466042157E+01  2.652590259E+00  0.00000E+00  9.000E+00
      11     1     3     3     0     0 -6.896498954E-01  9.017043279E-01 -2.260231567E+01  2.263080559E+01  5.110000000E-04  0.00000E+00  9.000E+00
     -11     1     3     3     0     0  1.271191028E+00 -8.758836267E-01 -2.197546089E+01  2.202961598E+01  5.110000000E-04  0.00000E+00  9.000E+00
       2     1     1     2   502     0 -5.815411325E-01 -2.582070117E-02 -1.413074795E+01  1.414273292E+01  0.000000000E+00  0.00000E+00  9.000E+00
#rwgt            1          24   469176.28287860565                3     7554033           0
<weights>
0.11145E+08
0.12541E+08
0.96810E+07
0.11796E+08
0.10168E+08
0.11571E+08
0.10224E+08
0.11358E+08
0.10936E+08
0.10576E+08
0.10778E+08
0.10826E+08
0.10998E+08
0.10711E+08
0.10758E+08
0.11253E+08
0.11145E+08
0.11499E+08
0.11559E+08
0.11548E+08
0.11478E+08
0.11510E+08
0.11629E+08
0.11195E+08
0.11629E+08
0.11492E+08
0.10975E+08
0.11443E+08
0.11281E+08
0.11386E+08
0.11538E+08
0.11053E+08
0.11361E+08
0.11207E+08
0.11091E+08
0.11452E+08
0.10875E+08
0.10456E+08
0.11799E+08
0.11091E+08
0.11194E+08
0.11164E+08
0.11127E+08
0.11617E+08
0.10686E+08
</weights>
</event>
<event>
      6  10001 -1.11453E+07  8.94427E-01 -1.00000E+00  2.14616E-01
       2    -1     0     0   501     0  0.000000000E+00  0.000000000E+00  4.892715217E+02  4.892715217E+02  0.000000000E+00  0.00000E+00  9.000E+00
      21    -1     0     0   502   501  0.000000000E+00  0.000000000E+00 -1.215852954E-03  1.215852954E-03  0.000000000E+00  0.00000E+00  9.000E+00
      23     2     1     2     0     0  2.143700026E-01  2.716110131E-01  3.579320295E+02  3.579340054E+02  1.137875210E+00  0.00000E+00  9.000E+00
      11     1     3     3     0     0  4.543575776E-01  2.709078891E-01  7.465068203E+01  7.465255628E+01  5.110000000E-04  0.00000E+00  9.000E+00
     -11     1     3     3     0     0 -2.399875750E-01  7.031240310E-04  2.832813474E+02  2.832814491E+02  5.110000000E-04  0.00000E+00  9.000E+00
       2     1     1     2   502     0 -2.143700026E-01 -2.716110131E-01  1.313382764E+02  1.313387322E+02  0.000000000E+00  0.00000E+00  9.000E+00
#rwgt            1          24  -56254221.407014742                3     7656715           0
<weights>
-.11145E+08
-.11816E+08
-.10316E+08
-.14373E+08
-.82658E+07
-.91625E+07
-.13909E+08
-.11180E+08
-.11110E+08
-.10840E+08
-.10839E+08
-.10968E+08
-.11021E+08
-.10861E+08
-.10848E+08
-.11223E+08
-.11198E+08
-.11438E+08
-.11472E+08
-.11462E+08
-.11416E+08
-.11471E+08
-.11495E+08
-.11372E+08
-.11328E+08
-.11282E+08
-.11293E+08
-.11409E+08
-.11349E+08
-.11446E+08
-.11484E+08
-.11175E+08
-.11216E+08
-.11140E+08
-.11173E+08
-.11216E+08
-.11092E+08
-.11101E+08
-.11115E+08
-.11158E+08
-.11135E+08
-.11181E+08
-.11108E+08
-.11480E+08
-.10836E+08
</weights>
</event>
<event>
      6  10001  1.11453E+07  8.94427E-01 -1.00000E+00  6.06750E-01
       2    -1     0     0   501     0  0.000000000E+00  0.000000000E+00  6.978947695E-01  6.978947695E-01  0.000000000E+00  0.00000E+00  9.000E+00
      -2    -1     0     0     0   502  0.000000000E+00  0.000000000E+00 -1.083115534E+00  1.083115534E+00  0.000000000E+00  0.00000E+00  9.000E+00
      23     2     1     2     0     0 -4.499621204E-01 -5.825031723E-02 -3.101544592E-01  1.321125579E+00  1.201381704E+00  0.00000E+00  9.000E+00
      11     1     3     3     0     0 -5.314593311E-01 -5.622048075E-01 -1.929942392E-01  7.973520575E-01  5.110000000E-04  0.00000E+00  9.000E+00
     -11     1     3     3     0     0  8.149721068E-02  5.039544903E-01 -1.171602200E-01  5.237735216E-01  5.110000000E-04  0.00000E+00  9.000E+00
      21     1     1     2   501   502  4.499621204E-01  5.825031723E-02 -7.506630480E-02  4.598847240E-01  7.508562643E-09  0.00000E+00  9.000E+00
#rwgt            1          23   338771.31718436821                3     7659322           0
<weights>
0.11145E+08
0.14180E+08
0.86212E+07
0.10221E+08
0.10806E+08
0.13560E+08
0.71713E+07
0.10823E+08
0.11501E+08
0.10775E+08
0.10693E+08
0.10974E+08
0.10885E+08
0.10767E+08
0.10713E+08
0.11141E+08
0.11414E+08
0.11609E+08
0.11552E+08
0.11527E+08
0.11588E+08
0.11643E+08
0.11611E+08
0.11570E+08
0.11272E+08
0.11452E+08
0.11119E+08
0.11621E+08
0.11344E+08
0.11648E+08
0.11625E+08
0.11154E+08
0.11288E+08
0.11148E+08
0.11187E+08
0.10825E+08
0.11515E+08
0.11290E+08
0.10921E+08
0.11197E+08
0.11094E+08
0.11265E+08
0.11018E+08
0.11607E+08
0.10727E+08
</weights>
</event>
<event>
      6  10001 -1.11453E+07  8.94427E-01 -1.00000E+00  6.11624E-01
       2    -1     0     0   501     0  0.000000000E+00  0.000000000E+00  5.391679173E+01  5.391679173E+01  0.000000000E+00  0.00000E+00  9.000E+00
      21    -1     0     0   502   501  0.000000000E+00  0.000000000E+00 -1.592649357E-02  1.592649357E-02  0.000000000E+00  0.00000E+00  9.000E+00
      23     2     1     2     0     0 -5.237700468E-02  5.321164661E-01  4.109024251E+01  4.111094198E+01  1.189802523E+00  0.00000E+00  9.000E+00
      11     1     3     3     0     0  1.414725559E-01 -3.572425692E-01  1.000491296E+01  1.001228847E+01  5.110000000E-04  0.00000E+00  9.000E+00
     -11     1     3     3     0     0 -1.938495606E-01  8.893590353E-01  3.108532955E+01  3.109865351E+01  5.110000000E-04  0.00000E+00  9.000E+00
       2     1     1     2   502     0  5.237700468E-02 -5.321164661E-01  1.281062273E+01  1.282177624E+01  0.000000000E+00  0.00000E+00  9.000E+00
#rwgt            1          24  -8655512.7503592148                3     7661149           0
<weights>
-.11145E+08
-.12345E+08
-.98007E+07
-.15002E+08
-.78528E+07
-.91716E+07
-.13910E+08
-.11179E+08
-.11112E+08
-.10835E+08
-.10831E+08
-.10966E+08
-.11016E+08
-.10855E+08
-.10841E+08
-.11224E+08
-.11201E+08
-.11446E+08
-.11481E+08
-.11471E+08
-.11423E+08
-.11481E+08
-.11503E+08
-.11382E+08
-.11328E+08
-.11283E+08
-.11302E+08
-.11417E+08
-.11356E+08
-.11456E+08
-.11493E+08
-.11178E+08
-.11216E+08
-.11139E+08
-.11174E+08
-.11214E+08
-.11094E+08
-.11110E+08
-.11105E+08
-.11161E+08
-.11132E+08
-.11182E+08
-.11107E+08
-.11488E+08
-.10829E+08
</weights>
</event>
<event>
      7  10001  1.11453E+07  1.02441E+00 -1.00000E+00  5.53334E-01
       2    -1     0     0   501     0  0.000000000E+00  0.000000000E+00  1.383796674E-01  1.383796674E-01  0.000000000E+00  0.00000E+00  9.000E+00
      -2    -1     0     0     0   511  0.000000000E+00  0.000000000E+00 -3.592310080E+01  3.592310080E+01  0.000000000E+00  0.00000E+00  9.000E+00
      23     2     1     2     0     0 -4.257954943E-01 -8.315540243E-01 -7.042388589E+00  7.183905066E+00  1.067928397E+00  0.00000E+00  9.000E+00
      11     1     3     3     0     0  1.646594771E-01 -6.361482404E-01 -5.154267535E+00  5.195986087E+00  5.110000000E-04  0.00000E+00  9.000E+00
     -11     1     3     3     0     0 -5.904549714E-01 -1.954057839E-01 -1.888121054E+00  1.987918979E+00  5.110000000E-04  0.00000E+00  9.000E+00
      21     1     1     2   501   502 -4.687749020E-01  1.330721908E+00 -9.116772204E+00  9.225297076E+00  1.192092896E-07  0.00000E+00  9.000E+00
      21     1     1     2   502   511  8.945703962E-01 -4.991678837E-01 -1.962556034E+01  1.965227833E+01  0.000000000E+00  0.00000E+00  9.000E+00
#rwgt            1          23   209118.13586268460                3     7663785           0
<weights>
0.11145E+08
0.12302E+08
0.99961E+07
0.12355E+08
0.95678E+07
0.10854E+08
0.11325E+08
0.11186E+08
0.11100E+08
0.10854E+08
0.10880E+08
0.10991E+08
0.10991E+08
0.10882E+08
0.10883E+08
0.11124E+08
0.11308E+08
0.11423E+08
0.11400E+08
0.11379E+08
0.11415E+08
0.11416E+08
0.11468E+08
0.11306E+08
0.11337E+08
0.11413E+08
0.11011E+08
0.11412E+08
0.11192E+08
0.11384E+08
0.11421E+08
0.11099E+08
0.11276E+08
0.11207E+08
0.11102E+08
0.11008E+08
0.11297E+08
0.10970E+08
0.11224E+08
0.11143E+08
0.11140E+08
0.11242E+08
0.11043E+08
0.11440E+08
0.10871E+08
</weights>
</event>
<event>
      6  10001  1.11453E+07  8.94427E-01 -1.00000E+00  6.02998E-01
       4    -1     0     0   501     0  0.000000000E+00  0.000000000E+00  8.321336526E-01  8.321336526E-01  0.000000000E+00  0.00000E+00  9.000E+00
      -4    -1     0     0     0   502  0.000000000E+00  0.000000000E+00 -2.564203843E+00  2.564203843E+00  0.000000000E+00  0.00000E+00  9.000E+00
      23     2     1     2     0     0  4.876208183E-01 -2.018352194E-01 -1.809313634E+00  2.862972641E+00  2.155106726E+00  0.00000E+00  9.000E+00
      11     1     3     3     0     0  3.766104234E-01  7.964510808E-01 -1.615345300E+00  1.839975661E+00  5.110000000E-04  0.00000E+00  9.000E+00
     -11     1     3     3     0     0  1.110103949E-01 -9.982863002E-01 -1.939683342E-01  1.022996980E+00  5.110000000E-04  0.00000E+00  9.000E+00
      21     1     1     2   501   502 -4.876208183E-01  2.018352194E-01  7.724344389E-02  5.333648543E-01  2.008290836E-08  0.00000E+00  9.000E+00
#rwgt            1          27   19438.892144455589                3     7665547           0
<weights>
0.11145E+08
0.51673E+08
-.17780E+08
-.51189E+08
0.46268E+08
0.79360E+08
-.93838E+08
0.11195E+08
0.11040E+08
0.81682E+07
0.71489E+07
0.96599E+07
0.93366E+07
0.77871E+07
0.73095E+07
0.11759E+08
0.13015E+08
0.15281E+08
0.15139E+08
0.15177E+08
0.14930E+08
0.15790E+08
0.15455E+08
0.14155E+08
0.13086E+08
0.13757E+08
0.10798E+08
0.15585E+08
0.13871E+08
0.16020E+08
0.15788E+08
0.12309E+08
0.11366E+08
0.10720E+08
0.11964E+08
0.11464E+08
0.10958E+08
0.14484E+08
0.69390E+07
0.12248E+08
0.10201E+08
0.11520E+08
0.10756E+08
0.15273E+08
0.74952E+07
</weights>
</event>
<event>
      6  10001 -1.11453E+07  8.94427E-01 -1.00000E+00  1.92541E-01
      21    -1     0     0   502   501  0.000000000E+00  0.000000000E+00  3.584227091E-03  3.584227091E-03  0.000000000E+00  0.00000E+00  9.000E+00
       2    -1     0     0   501     0  0.000000000E+00  0.000000000E+00 -2.557110499E+02  2.557110499E+02  0.000000000E+00  0.00000E+00  9.000E+00
      23     2     1     2     0     0  1.373007024E-01  2.684706874E-01 -2.034387315E+02  2.034450301E+02  1.572224535E+00  0.00000E+00  9.000E+00
      11     1     3     3     0     0 -5.484025913E-02  9.152642083E-01 -1.062276746E+02  1.062316317E+02  5.110000000E-04  0.00000E+00  9.000E+00
     -11     1     3     3     0     0  1.921409616E-01 -6.467935209E-01 -9.721105686E+01  9.721339844E+01  5.110000000E-04  0.00000E+00  9.000E+00
       2     1     1     2   502     0 -1.373007024E-01 -2.684706874E-01 -5.226873421E+01  5.226960401E+01  0.000000000E+00  0.00000E+00  9.000E+00
#rwgt            1          17  -11089319.539282033                3     7666742           0
<weights>
-.11145E+08
-.12067E+08
-.10079E+08
-.14666E+08
-.80755E+07
-.91702E+07
-.13910E+08
-.11127E+08
-.11162E+08
-.11172E+08
-.11165E+08
-.11071E+08
-.11237E+08
-.11167E+08
-.11165E+08
-.11327E+08
-.10865E+08
-.11297E+08
-.10881E+08
-.10851E+08
-.11313E+08
-.11103E+08
-.11149E+08
-.11149E+08
-.11090E+08
-.11175E+08
-.11118E+08
-.10960E+08
-.11298E+08
-.11094E+08
-.11151E+08
-.11042E+08
-.11241E+08
-.11296E+08
-.10947E+08
-.11131E+08
-.11155E+08
-.11170E+08
-.11121E+08
-.11184E+08
-.11108E+08
-.11157E+08
-.11133E+08
-.11120E+08
-.11169E+08
</weights>
</event>
<event>
      7  10001  1.11453E+07  1.89629E+01 -1.00000E+00  1.68116E-01
      21    -1     0     0   502   501  0.000000000E+00  0.000000000E+00  3.162772202E+00  3.162772202E+00  0.000000000E+00  0.00000E+00  9.000E+00
       2    -1     0     0   501     0  0.000000000E+00  0.000000000E+00 -3.484003351E+01  3.484003351E+01  0.000000000E+00  0.00000E+00  9.000E+00
      23     2     1     2     0     0 -1.172643302E+00 -1.244293206E+00 -3.263971282E+00  3.861826033E+00  1.156215329E+00  0.00000E+00  9.000E+00
      11     1     3     3     0     0 -7.427009361E-01 -9.013069174E-01 -1.017332739E+00  1.548846346E+00  5.110000000E-04  0.00000E+00  9.000E+00
     -11     1     3     3     0     0 -4.299423659E-01 -3.429862886E-01 -2.246638542E+00  2.312979687E+00  5.110000000E-04  0.00000E+00  9.000E+00
       2     1     1     2   511     0  1.763463685E+00 -7.326501757E-01 -3.087211654E+01  3.093111961E+01  0.000000000E+00  0.00000E+00  9.000E+00
      21     1     1     2   502   511 -5.908203828E-01  1.976943382E+00  2.458826514E+00  3.209860073E+00  6.179941104E-07  0.00000E+00  9.000E+00
#rwgt            2         189   5851386.4618886253                3     7667161           0
<weights>
0.11143E+08
0.10526E+08
0.11682E+08
0.12793E+08
0.93604E+07
0.91683E+07
0.13907E+08
0.11194E+08
0.11092E+08
0.11028E+08
0.11072E+08
0.11126E+08
0.11037E+08
0.11062E+08
0.11071E+08
0.11086E+08
0.11236E+08
0.11109E+08
0.11352E+08
0.11362E+08
0.11098E+08
0.11216E+08
0.11220E+08
0.11235E+08
0.11157E+08
0.11159E+08
0.11131E+08
0.11347E+08
0.10950E+08
0.11208E+08
0.11193E+08
0.11142E+08
0.11165E+08
0.11070E+08
0.11249E+08
0.11112E+08
0.11176E+08
0.10996E+08
0.11281E+08
0.11078E+08
0.11195E+08
0.11208E+08
0.11074E+08
0.11231E+08
0.11055E+08
</weights>
</event>
<event>
      7  10001  1.11453E+07  1.94588E+00 -1.00000E+00  3.59143E-01
      -2    -1     0     0     0   502  0.000000000E+00  0.000000000E+00  5.661914823E-01  5.661914823E-01  0.000000000E+00  0.00000E+00  9.000E+00
      21    -1     0     0   502   501  0.000000000E+00  0.000000000E+00 -6.122481740E+00  6.122481740E+00  0.000000000E+00  0.00000E+00  9.000E+00
      23     2     1     2     0     0 -2.040974111E-01 -8.063589350E-01 -8.810207872E-01  1.715182475E+00  1.213994567E+00  0.00000E+00  9.000E+00
      11     1     3     3     0     0 -6.921040130E-02  5.017766462E-02  2.647997396E-01  2.782571489E-01  5.110000000E-04  0.00000E+00  9.000E+00
     -11     1     3     3     0     0 -1.348870098E-01 -8.565365997E-01 -1.145820527E+00  1.436925326E+00  5.110000000E-04  0.00000E+00  9.000E+00
      -2     1     1     2     0   512  5.188206566E-01  4.625137692E-01 -7.573744691E-01  1.027963981E+00  0.000000000E+00  0.00000E+00  9.000E+00
      21     1     1     2   512   501 -3.147232456E-01  3.438451658E-01 -3.917895001E+00  3.945526766E+00  1.032382731E-07  0.00000E+00  9.000E+00
#rwgt            2         101   7515493.5799109712                3     7670623           0
<weights>
0.11145E+08
0.11354E+08
0.10692E+08
0.13800E+08
0.85670E+07
0.91702E+07
0.13910E+08
0.11207E+08
0.11080E+08
0.10885E+08
0.10906E+08
0.10982E+08
0.11064E+08
0.10914E+08
0.10912E+08
0.11217E+08
0.11166E+08
0.11379E+08
0.11383E+08
0.11380E+08
0.11360E+08
0.11392E+08
0.11425E+08
0.11254E+08
0.11338E+08
0.11289E+08
0.11094E+08
0.11348E+08
0.11280E+08
0.11361E+08
0.11404E+08
0.11155E+08
0.11212E+08
0.11142E+08
0.11163E+08
0.11246E+08
0.11058E+08
0.11020E+08
0.11197E+08
0.11138E+08
0.11153E+08
0.11165E+08
0.11125E+08
0.11412E+08
0.10895E+08
</weights>
</event>
<event>
      7  10001  1.11453E+07  6.62780E+00 -1.00000E+00  2.18027E-01
      21    -1     0     0   502   501  0.000000000E+00  0.000000000E+00  1.686446659E+00  1.686446659E+00  0.000000000E+00  0.00000E+00  9.000E+00
      -4    -1     0     0     0   502  0.000000000E+00  0.000000000E+00 -8.400845522E+00  8.400845522E+00  0.000000000E+00  0.00000E+00  9.000E+00
      23     2     1     2     0     0 -4.488276221E-01  3.453672419E-01 -8.125413952E-02  1.168945940E+00  1.019366278E+00  0.00000E+00  9.000E+00
      11     1     3     3     0     0 -5.498434087E-01 -2.117658492E-01 -1.203558785E-01  6.013803685E-01  5.110000000E-04  0.00000E+00  9.000E+00
     -11     1     3     3     0     0  1.010157866E-01  5.571330911E-01  3.910173902E-02  5.675655711E-01  5.110000000E-04  0.00000E+00  9.000E+00
      -4     1     1     2     0   511 -1.683106305E+00  2.090637083E+00 -2.495631674E+00  3.664940340E+00  0.000000000E+00  0.00000E+00  9.000E+00
      21     1     1     2   511   501  2.131933927E+00 -2.436004325E+00 -4.137513049E+00  5.253405902E+00  2.920019320E-07  0.00000E+00  9.000E+00
#rwgt            2         154   45802.328342522436                3     7670665           0
<weights>
0.11145E+08
0.11408E+08
0.10584E+08
0.13865E+08
0.84802E+07
0.91702E+07
0.13910E+08
0.11226E+08
0.11062E+08
0.10822E+08
0.10848E+08
0.10943E+08
0.11048E+08
0.10852E+08
0.10854E+08
0.11218E+08
0.11203E+08
0.11436E+08
0.11456E+08
0.11453E+08
0.11415E+08
0.11455E+08
0.11503E+08
0.11272E+08
0.11405E+08
0.11376E+08
0.11044E+08
0.11422E+08
0.11295E+08
0.11416E+08
0.11469E+08
0.11156E+08
0.11231E+08
0.11142E+08
0.11166E+08
0.11284E+08
0.11024E+08
0.10988E+08
0.11199E+08
0.11145E+08
0.11147E+08
0.11161E+08
0.11130E+08
0.11480E+08
0.10834E+08
</weights>
</event>
<event>
      6  10001 -1.11453E+07  8.94427E-01 -1.00000E+00  4.01470E-01
      21    -1     0     0   502   501  0.000000000E+00  0.000000000E+00  3.375652675E-03  3.375652675E-03  0.000000000E+00  0.00000E+00  9.000E+00
       2    -1     0     0   501     0  0.000000000E+00  0.000000000E+00 -5.924062780E+02  5.924062780E+02  0.000000000E+00  0.00000E+00  9.000E+00
      23     2     1     2     0     0  1.327417519E-01 -2.406654470E-01 -5.846441748E+02  5.846460595E+02  1.458862597E+00  0.00000E+00  9.000E+00
      11     1     3     3     0     0  5.718457478E-01  1.540270981E-01 -1.159130129E+02  1.159145258E+02  5.110000000E-04  0.00000E+00  9.000E+00
     -11     1     3     3     0     0 -4.391039959E-01 -3.946925451E-01 -4.687311618E+02  4.687315337E+02  5.110000000E-04  0.00000E+00  9.000E+00
       2     1     1     2   502     0 -1.327417519E-01  2.406654470E-01 -7.758727519E+00  7.763594074E+00  0.000000000E+00  0.00000E+00  9.000E+00
#rwgt            1          17  -47991762.421291545                3     7671220           0
<weights>
-.11145E+08
-.11287E+08
-.10867E+08
-.13718E+08
-.87072E+07
-.91702E+07
-.13910E+08
-.11132E+08
-.11158E+08
-.11163E+08
-.11145E+08
-.10953E+08
-.11360E+08
-.11154E+08
-.11149E+08
-.11184E+08
-.11079E+08
-.11529E+08
-.10614E+08
-.10535E+08
-.11578E+08
-.11113E+08
-.11172E+08
-.10994E+08
-.11263E+08
-.11439E+08
-.10965E+08
-.10660E+08
-.11697E+08
-.11057E+08
-.11201E+08
-.11054E+08
-.11234E+08
-.11618E+08
-.10576E+08
-.11078E+08
-.11207E+08
-.11135E+08
-.11164E+08
-.11284E+08
-.11022E+08
-.11126E+08
-.11165E+08
-.11136E+08
-.11155E+08
</weights>
</event>
<event>
      7  10001 -1.11453E+07  1.24510E+00 -1.00000E+00  4.84500E-01
      21    -1     0     0   511   501  0.000000000E+00  0.000000000E+00  6.579266209E+01  6.579266209E+01  0.000000000E+00  0.00000E+00  9.000E+00
      -2    -1     0     0     0   502  0.000000000E+00  0.000000000E+00 -3.697692889E+00  3.697692889E+00  0.000000000E+00  0.00000E+00  9.000E+00
      23     2     1     2     0     0  3.492266668E-01  3.653406808E-01 -2.044044106E+00  3.951410670E+00  3.343665189E+00  0.00000E+00  9.000E+00
      11     1     3     3     0     0 -1.154044798E+00  1.161726765E+00 -6.892014413E-01  1.776633716E+00  5.110000000E-04  0.00000E+00  9.000E+00
     -11     1     3     3     0     0  1.503271465E+00 -7.963860844E-01 -1.354842665E+00  2.174776954E+00  5.110000000E-04  0.00000E+00  9.000E+00
      -2     1     1     2     0   501  3.389316332E-01  6.723099847E-01 -4.897542995E-01  8.981840799E-01  0.000000000E+00  0.00000E+00  9.000E+00
      21     1     1     2   511   502 -6.881583000E-01 -1.037650666E+00  6.462876761E+01  6.464076023E+01  9.536743164E-07  0.00000E+00  9.000E+00
#rwgt            1          14  -193668.79171655810                3     7671548           0
<weights>
-.11145E+08
-.34073E+07
-.17581E+08
-.18507E+08
-.55533E+07
0.13840E+06
-.28199E+08
-.11579E+08
-.10703E+08
-.11048E+08
-.11207E+08
-.11001E+08
-.11310E+08
-.11131E+08
-.11194E+08
-.11316E+08
-.10820E+08
-.11046E+08
-.11146E+08
-.11167E+08
-.11035E+08
-.11041E+08
-.11142E+08
-.10877E+08
-.11369E+08
-.11017E+08
-.11178E+08
-.10959E+08
-.11199E+08
-.10962E+08
-.11089E+08
-.11151E+08
-.11114E+08
-.11130E+08
-.11134E+08
-.11790E+08
-.10479E+08
-.10673E+08
-.11612E+08
-.11050E+08
-.11240E+08
-.11028E+08
-.11271E+08
-.11134E+08
-.11135E+08
</weights>
</event>
<event>
      7  10001  1.11453E+07  1.93011E+00 -1.00000E+00  3.60704E-01
      21    -1     0     0   511   501  0.000000000E+00  0.000000000E+00  2.416847525E+01  2.416847525E+01  0.000000000E+00  0.00000E+00  9.000E+00
       1    -1     0     0   501     0  0.000000000E+00  0.000000000E+00 -6.755087409E+02  6.755087409E+02  0.000000000E+00  0.00000E+00  9.000E+00
      23     2     1     2     0     0 -6.050971121E-01 -1.842566748E-01 -6.713265623E+02  6.713347920E+02  3.263364448E+00  0.00000E+00  9.000E+00
      11     1     3     3     0     0 -1.831184383E+00 -2.073472546E-02 -5.181204366E+02  5.181236730E+02  5.110000000E-04  0.00000E+00  9.000E+00
     -11     1     3     3     0     0  1.226087270E+00 -1.635219493E-01 -1.532061257E+02  1.532111190E+02  5.110000000E-04  0.00000E+00  9.000E+00
       1     1     1     2   502     0 -1.268704463E+00 -2.785565195E-01 -4.037458888E+00  4.241259131E+00  0.000000000E+00  0.00000E+00  9.000E+00
      21     1     1     2   511   502  1.873801575E+00  4.628131943E-01  2.402375553E+01  2.410116508E+01  1.430511475E-06  0.00000E+00  9.000E+00
#rwgt            1          16   22341218.532727644                3     7689637           0
<weights>
0.11145E+08
0.10822E+08
0.11729E+08
0.11521E+08
0.10680E+08
0.10372E+08
0.12064E+08
0.11368E+08
0.10938E+08
0.11009E+08
0.11402E+08
0.12417E+08
0.98824E+07
0.11159E+08
0.11170E+08
0.10330E+08
0.11973E+08
0.97241E+07
0.13060E+08
0.13429E+08
0.95118E+07
0.11245E+08
0.10974E+08
0.11789E+08
0.10434E+08
0.10031E+08
0.11844E+08
0.13009E+08
0.91297E+07
0.11429E+08
0.10906E+08
0.10882E+08
0.11412E+08
0.97081E+07
0.12844E+08
0.11135E+08
0.11156E+08
0.11101E+08
0.11216E+08
0.11409E+08
0.10910E+08
0.11127E+08
0.11164E+08
0.11120E+08
0.11172E+08
</weights>
</event>
<event>
      6  10001 -1.11453E+07  8.94427E-01 -1.00000E+00  2.70315E-01
       2    -1     0     0   501     0  0.000000000E+00  0.000000000E+00  1.866943323E+02  1.866943323E+02  0.000000000E+00  0.00000E+00  9.000E+00
      21    -1     0     0   502   501  0.000000000E+00  0.000000000E+00 -2.187006255E-02  2.187006255E-02  0.000000000E+00  0.00000E+00  9.000E+00
      23     2     1     2     0     0 -1.137137844E-01 -4.650998107E-01  1.838292006E+02  1.838329082E+02  1.064840156E+00  0.00000E+00  9.000E+00
      11     1     3     3     0     0  6.314159771E-02 -5.592573367E-01  1.766906835E+02  1.766915798E+02  5.110000000E-04  0.00000E+00  9.000E+00
     -11     1     3     3     0     0 -1.768553821E-01  9.415752596E-02  7.138517177E+00  7.141328393E+00  5.110000000E-04  0.00000E+00  9.000E+00
       2     1     1     2   502     0  1.137137844E-01  4.650998107E-01  2.843261641E+00  2.883294195E+00  0.000000000E+00  0.00000E+00  9.000E+00
#rwgt            1          24  -48360991.927698024                3     7704440           0
<weights>
-.11145E+08
-.12444E+08
-.96388E+07
-.15134E+08
-.77234E+07
-.91641E+07
-.13909E+08
-.11175E+08
-.11116E+08
-.10834E+08
-.10830E+08
-.10966E+08
-.11015E+08
-.10854E+08
-.10839E+08
-.11224E+08
-.11202E+08
-.11446E+08
-.11484E+08
-.11473E+08
-.11424E+08
-.11482E+08
-.11503E+08
-.11392E+08
-.11325E+08
-.11281E+08
-.11330E+08
-.11418E+08
-.11358E+08
-.11459E+08
-.11495E+08
-.11178E+08
-.11217E+08
-.11139E+08
-.11174E+08
-.11211E+08
-.11098E+08
-.11114E+08
-.11107E+08
-.11161E+08
-.11132E+08
-.11183E+08
-.11106E+08
-.11489E+08
-.10828E+08
</weights>
</event>
<event>
      6  10001 -1.11453E+07  8.94427E-01 -1.00000E+00  2.90625E-01
      21    -1     0     0   502   501  0.000000000E+00  0.000000000E+00  3.118912397E-03  3.118912397E-03  0.000000000E+00  0.00000E+00  9.000E+00
       2    -1     0     0   501     0  0.000000000E+00  0.000000000E+00 -1.090289445E+03  1.090289445E+03  0.000000000E+00  0.00000E+00  9.000E+00
      23     2     1     2     0     0  5.052796970E-01  1.243790658E+00 -8.872779570E+02  8.872797559E+02  1.178905635E+00  0.00000E+00  9.000E+00
      11     1     3     3     0     0  8.390729957E-02  9.127588992E-01 -7.729112891E+02  7.729118326E+02  5.110000000E-04  0.00000E+00  9.000E+00
     -11     1     3     3     0     0  4.213723975E-01  3.310317593E-01 -1.143666680E+02  1.143679233E+02  5.110000000E-04  0.00000E+00  9.000E+00
       2     1     1     2   502     0 -5.052796970E-01 -1.243790658E+00 -2.030083689E+02  2.030128079E+02  0.000000000E+00  0.00000E+00  9.000E+00
#rwgt            1          17  -16542463.829827989                3     7704821           0
<weights>
-.11147E+08
-.10657E+08
-.11622E+08
-.12979E+08
-.93136E+07
-.91520E+07
-.13910E+08
-.11143E+08
-.11150E+08
-.11167E+08
-.11130E+08
-.10895E+08
-.11426E+08
-.11153E+08
-.11144E+08
-.10564E+08
-.12019E+08
-.11617E+08
-.10517E+08
-.10405E+08
-.11691E+08
-.11142E+08
-.11147E+08
-.10857E+08
-.11419E+08
-.11809E+08
-.10759E+08
-.10438E+08
-.12001E+08
-.11045E+08
-.11219E+08
-.11308E+08
-.10981E+08
-.11916E+08
-.10258E+08
-.11017E+08
-.11267E+08
-.11102E+08
-.11207E+08
-.11369E+08
-.10952E+08
-.11107E+08
-.11188E+08
-.11143E+08
-.11151E+08
</weights>
</event>
<event>
      6  10001 -1.11453E+07  8.94427E-01 -1.00000E+00  4.61521E-01
      21    -1     0     0   502   501  0.000000000E+00  0.000000000E+00  1.892111258E-02  1.892111258E-02  0.000000000E+00  0.00000E+00  9.000E+00
       2    -1     0     0   501     0  0.000000000E+00  0.000000000E+00 -5.220554545E+01  5.220554545E+01  0.000000000E+00  0.00000E+00  9.000E+00
      23     2     1     2     0     0 -1.182296481E-01  5.842946285E-01 -4.309982943E+01  4.311813798E+01  1.105960211E+00  0.00000E+00  9.000E+00
      11     1     3     3     0     0  4.202304640E-01 -2.492533956E-02 -1.879040698E+01  1.879512197E+01  5.110000000E-04  0.00000E+00  9.000E+00
     -11     1     3     3     0     0 -5.384601120E-01  6.092199681E-01 -2.430942244E+01  2.432301602E+01  5.110000000E-04  0.00000E+00  9.000E+00
       2     1     1     2   502     0  1.182296481E-01 -5.842946285E-01 -9.086794910E+00  9.106328580E+00  0.000000000E+00  0.00000E+00  9.000E+00
#rwgt            1          17  -9633261.3149521239                3     7705580           0
<weights>
-.11145E+08
-.12698E+08
-.94796E+07
-.15433E+08
-.75956E+07
-.91702E+07
-.13910E+08
-.11185E+08
-.11106E+08
-.11081E+08
-.11120E+08
-.11152E+08
-.11063E+08
-.11112E+08
-.11119E+08
-.11106E+08
-.11184E+08
-.11073E+08
-.11291E+08
-.11303E+08
-.11064E+08
-.11170E+08
-.11164E+08
-.11236E+08
-.11094E+08
-.11108E+08
-.11159E+08
-.11306E+08
-.10930E+08
-.11170E+08
-.11148E+08
-.11143E+08
-.11153E+08
-.11066E+08
-.11253E+08
-.11122E+08
-.11167E+08
-.11036E+08
-.11262E+08
-.11079E+08
-.11199E+08
-.11206E+08
-.11080E+08
-.11181E+08
-.11105E+08
</weights>
</event>
<event>
      6  10001 -1.11453E+07  8.94427E-01 -1.00000E+00  1.61844E-01
      21    -1     0     0   502   501  0.000000000E+00  0.000000000E+00  4.347629573E+01  4.347629573E+01  0.000000000E+00  0.00000E+00  9.000E+00
      -4    -1     0     0     0   502  0.000000000E+00  0.000000000E+00 -1.695997635E-02  1.695997635E-02  0.000000000E+00  0.00000E+00  9.000E+00
      23     2     1     2     0     0 -1.416653816E-01  2.202586284E-01  3.612080054E+01  3.615004919E+01  1.430119377E+00  0.00000E+00  9.000E+00
      11     1     3     3     0     0  6.267016335E-01  1.070698648E-01  1.209487711E+01  1.211157593E+01  5.110000000E-04  0.00000E+00  9.000E+00
     -11     1     3     3     0     0 -7.683670151E-01  1.131887636E-01  2.402592343E+01  2.403847326E+01  5.110000000E-04  0.00000E+00  9.000E+00
      -4     1     1     2     0   501  1.416653816E-01 -2.202586284E-01  7.338535210E+00  7.343206519E+00  0.000000000E+00  0.00000E+00  9.000E+00
#rwgt            1          12  -784294.57427478407                3     7705948           0
<weights>
-.11145E+08
-.12685E+08
-.93786E+07
-.15429E+08
-.75150E+07
-.91632E+07
-.13909E+08
-.11169E+08
-.11122E+08
-.10813E+08
-.10797E+08
-.10957E+08
-.10998E+08
-.10828E+08
-.10809E+08
-.11228E+08
-.11219E+08
-.11478E+08
-.11521E+08
-.11509E+08
-.11453E+08
-.11521E+08
-.11537E+08
-.11429E+08
-.11332E+08
-.11293E+08
-.11361E+08
-.11452E+08
-.11385E+08
-.11500E+08
-.11533E+08
-.11189E+08
-.11217E+08
-.11136E+08
-.11181E+08
-.11206E+08
-.11104E+08
-.11152E+08
-.11064E+08
-.11171E+08
-.11123E+08
-.11187E+08
-.11101E+08
-.11522E+08
-.10800E+08
</weights>
</event>
<event>
      7  10001 -1.11453E+07  1.11404E+00 -1.00000E+00  5.22488E-01
      21    -1     0     0   502   511  0.000000000E+00  0.000000000E+00  2.020977110E+02  2.020977110E+02  0.000000000E+00  0.00000E+00  9.000E+00
       2    -1     0     0   501     0  0.000000000E+00  0.000000000E+00 -1.070809961E+01  1.070809961E+01  0.000000000E+00  0.00000E+00  9.000E+00
      23     2     1     2     0     0 -6.600077260E-01 -9.646770200E-01 -1.006210725E+01  1.044125765E+01  2.531333073E+00  0.00000E+00  9.000E+00
      11     1     3     3     0     0  6.642372286E-01 -1.177475264E+00 -6.400963739E+00  6.542170599E+00  5.110000000E-04  0.00000E+00  9.000E+00
     -11     1     3     3     0     0 -1.324244955E+00  2.127982438E-01 -3.661143512E+00  3.899087055E+00  5.110000000E-04  0.00000E+00  9.000E+00
       2     1     1     2   502     0 -1.544246973E-01  2.045593462E-01 -4.187764476E-01  4.909839369E-01  0.000000000E+00  0.00000E+00  9.000E+00
      21     1     1     2   501   511  8.144324233E-01  7.601176738E-01  2.018704951E+02  2.018735690E+02  2.697398305E-06  0.00000E+00  9.000E+00
#rwgt            1          17  -724125.19818528113                3     7706997           0
<weights>
-.11145E+08
-.78498E+07
-.13884E+08
-.14982E+08
-.79529E+07
-.56761E+07
-.19274E+08
-.11252E+08
-.11040E+08
-.11000E+08
-.11066E+08
-.11023E+08
-.11161E+08
-.11048E+08
-.11066E+08
-.11221E+08
-.11049E+08
-.11216E+08
-.11218E+08
-.11218E+08
-.11209E+08
-.11209E+08
-.11250E+08
-.11137E+08
-.11257E+08
-.11189E+08
-.11106E+08
-.11180E+08
-.11174E+08
-.11168E+08
-.11225E+08
-.11122E+08
-.11191E+08
-.11147E+08
-.11140E+08
-.11334E+08
-.10961E+08
-.10905E+08
-.11374E+08
-.11095E+08
-.11192E+08
-.11130E+08
-.11161E+08
-.11251E+08
-.11038E+08
</weights>
</event>
<event>
      7  10001  1.11453E+07  4.02903E+00 -1.00000E+00  2.59577E-01
       2    -1     0     0   502     0  0.000000000E+00  0.000000000E+00  8.564192678E+01  8.564192678E+01  0.000000000E+00  0.00000E+00  9.000E+00
       2    -1     0     0   501     0  0.000000000E+00  0.000000000E+00 -9.578343946E+00  9.578343946E+00  0.000000000E+00  0.00000E+00  9.000E+00
      23     2     1     2     0     0 -2.103025731E-01 -1.201450258E+00  2.477455310E+01  2.484963607E+01  1.496068618E+00  0.00000E+00  9.000E+00
      11     1     3     3     0     0 -5.790784105E-02 -1.194606821E+00  2.454436687E+01  2.457348946E+01  5.110000000E-04  0.00000E+00  9.000E+00
     -11     1     3     3     0     0 -1.523947321E-01 -6.843436323E-03  2.301862299E-01  2.761466070E-01  5.110000000E-04  0.00000E+00  9.000E+00
       2     1     1     2   502     0  4.105519307E+00  1.716898039E-01 -9.028020462E+00  9.919169301E+00  0.000000000E+00  0.00000E+00  9.000E+00
       2     1     1     2   501     0 -3.895216734E+00  1.029760454E+00  6.031705019E+01  6.045146535E+01  0.000000000E+00  0.00000E+00  9.000E+00
#rwgt            2         253   4349943.9023420075                3     7717785           0
<weights>
0.11145E+08
0.10079E+08
0.12363E+08
0.12249E+08
0.99056E+07
0.91702E+07
0.13910E+08
0.11169E+08
0.11118E+08
0.10909E+08
0.10927E+08
0.11043E+08
0.11003E+08
0.10933E+08
0.10932E+08
0.11115E+08
0.11300E+08
0.11301E+08
0.11449E+08
0.11449E+08
0.11285E+08
0.11375E+08
0.11395E+08
0.11280E+08
0.11301E+08
0.11305E+08
0.11071E+08
0.11434E+08
0.11121E+08
0.11357E+08
0.11363E+08
0.11150E+08
0.11210E+08
0.11109E+08
0.11215E+08
0.11095E+08
0.11210E+08
0.11022E+08
0.11192E+08
0.11120E+08
0.11165E+08
0.11209E+08
0.11077E+08
0.11386E+08
0.10920E+08
</weights>
</event>
<event>
      6  10001 -1.11453E+07  8.94427E-01 -1.00000E+00  2.18427E-01
      -2    -1     0     0     0   502  0.000000000E+00  0.000000000E+00  2.039422953E-02  2.039422953E-02  0.000000000E+00  0.00000E+00  9.000E+00
       2    -1     0     0   501     0  0.000000000E+00  0.000000000E+00 -5.161140505E+01  5.161140505E+01  0.000000000E+00  0.00000E+00  9.000E+00
      23     2     1     2     0     0  1.582671264E-01 -2.346264291E-01 -3.192308731E+01  3.196183961E+01  1.547769376E+00  0.00000E+00  9.000E+00
      11     1     3     3     0     0 -3.476693203E-01  4.548369610E-01 -6.751303198E+00  6.775532876E+00  5.110000000E-04  0.00000E+00  9.000E+00
     -11     1     3     3     0     0  5.059364467E-01 -6.894633901E-01 -2.517178411E+01  2.518630673E+01  5.110000000E-04  0.00000E+00  9.000E+00
      21     1     1     2   501   502 -1.582671264E-01  2.346264291E-01 -1.966792351E+01  1.966995967E+01  3.371747881E-07  0.00000E+00  9.000E+00
#rwgt            1           8  -1085885.6752621587                3     7718055           0
<weights>
-.11145E+08
-.12852E+08
-.93296E+07
-.15621E+08
-.74754E+07
-.91702E+07
-.13910E+08
-.11184E+08
-.11106E+08
-.11081E+08
-.11120E+08
-.11151E+08
-.11063E+08
-.11112E+08
-.11119E+08
-.11107E+08
-.11183E+08
-.11074E+08
-.11290E+08
-.11301E+08
-.11065E+08
-.11170E+08
-.11164E+08
-.11236E+08
-.11094E+08
-.11109E+08
-.11159E+08
-.11305E+08
-.10932E+08
-.11170E+08
-.11148E+08
-.11142E+08
-.11153E+08
-.11067E+08
-.11252E+08
-.11122E+08
-.11167E+08
-.11037E+08
-.11261E+08
-.11079E+08
-.11199E+08
-.11206E+08
-.11080E+08
-.11181E+08
-.11106E+08
</weights>
</event>
<event>
      6  10001 -1.11453E+07  8.94427E-01 -1.00000E+00  1.70001E-01
      21    -1     0     0   502   501  0.000000000E+00  0.000000000E+00  8.242504747E-03  8.242504747E-03  0.000000000E+00  0.00000E+00  9.000E+00
       5    -1     0     0   501     0  0.000000000E+00  0.000000000E+00 -7.653356419E+01  7.653356419E+01  0.000000000E+00  0.00000E+00  9.000E+00
      23     2     1     2     0     0 -2.518172612E-01 -2.482356019E-01 -6.379901076E+01  6.381058434E+01  1.162698230E+00  0.00000E+00  9.000E+00
      11     1     3     3     0     0 -2.410220003E-03 -2.431479090E-01 -2.666364230E+00  2.677428839E+00  5.110000000E-04  0.00000E+00  9.000E+00
     -11     1     3     3     0     0 -2.494070412E-01 -5.087692899E-03 -6.113264653E+01  6.113315550E+01  5.110000000E-04  0.00000E+00  9.000E+00
       5     1     1     2   502     0  2.518172612E-01  2.482356019E-01 -1.272631093E+01  1.273122236E+01  0.000000000E+00  0.00000E+00  9.000E+00
#rwgt            1          20  -324312.58767478395                3     7722615           0
<weights>
-.11145E+08
-.13498E+08
-.86247E+07
-.16405E+08
-.69106E+07
-.91702E+07
-.13910E+08
-.11160E+08
-.11130E+08
-.11171E+08
-.11197E+08
-.11057E+08
-.11290E+08
-.11223E+08
-.11218E+08
-.11146E+08
-.11062E+08
-.11070E+08
-.11011E+08
-.11007E+08
-.11082E+08
-.11055E+08
-.11013E+08
-.11107E+08
-.11065E+08
-.11097E+08
-.11143E+08
-.11072E+08
-.11047E+08
-.11029E+08
-.11047E+08
-.11108E+08
-.11155E+08
-.11148E+08
-.11135E+08
-.11215E+08
-.11078E+08
-.10951E+08
-.11400E+08
-.11031E+08
-.11251E+08
-.11094E+08
-.11200E+08
-.11077E+08
-.11193E+08
</weights>
</event>
<event>
      6  10001 -1.11453E+07  8.94427E-01 -1.00000E+00  4.27647E-01
      -4    -1     0     0     0   502  0.000000000E+00  0.000000000E+00  3.329929966E+00  3.329929966E+00  0.000000000E+00  0.00000E+00  9.000E+00
      21    -1     0     0   502   501  0.000000000E+00  0.000000000E+00 -1.710629686E-01  1.710629686E-01  0.000000000E+00  0.00000E+00  9.000E+00
      23     2     1     2     0     0  2.674069919E-01  1.140369051E-02  2.913238844E+00  3.137716548E+00  1.134313902E+00  0.00000E+00  9.000E+00
      11     1     3     3     0     0  1.632049470E-02 -9.556467776E-02  2.857519804E+00  2.859163979E+00  5.110000000E-04  0.00000E+00  9.000E+00
     -11     1     3     3     0     0  2.510864972E-01  1.069683683E-01  5.571903928E-02  2.785525683E-01  5.110000000E-04  0.00000E+00  9.000E+00
      -4     1     1     2     0   501 -2.674069919E-01 -1.140369051E-02  2.456281538E-01  3.632763870E-01  0.000000000E+00  0.00000E+00  9.000E+00
#rwgt            1           3  -622533.26889707160                3     7723375           0
<weights>
-.11145E+08
-.92735E+07
-.12215E+08
-.16285E+08
-.72024E+07
-.61176E+07
-.18596E+08
-.11235E+08
-.11052E+08
-.10972E+08
-.11040E+08
-.11020E+08
-.11131E+08
-.11020E+08
-.11040E+08
-.11203E+08
-.11092E+08
-.11246E+08
-.11233E+08
-.11235E+08
-.11237E+08
-.11234E+08
-.11285E+08
-.11098E+08
-.11307E+08
-.11223E+08
-.10951E+08
-.11200E+08
-.11176E+08
-.11188E+08
-.11247E+08
-.11110E+08
-.11210E+08
-.11157E+08
-.11132E+08
-.11264E+08
-.11035E+08
-.10860E+08
-.11377E+08
-.11095E+08
-.11190E+08
-.11148E+08
-.11142E+08
-.11278E+08
-.11012E+08
</weights>
</event>
<event>
      6  10001 -1.11453E+07  8.94427E-01 -1.00000E+00  1.52211E-01
       4    -1     0     0   501     0  0.000000000E+00  0.000000000E+00  6.597551032E+01  6.597551032E+01  0.000000000E+00  0.00000E+00  9.000E+00
      21    -1     0     0   502   501  0.000000000E+00  0.000000000E+00 -8.250199582E-03  8.250199582E-03  0.000000000E+00  0.00000E+00  9.000E+00
      23     2     1     2     0     0 -2.579461624E-01  1.293935824E-01  4.600144558E+01  4.601586055E+01  1.114965385E+00  0.00000E+00  9.000E+00
      11     1     3     3     0     0  2.310161978E-01 -1.905644108E-01  3.292852123E+01  3.292988299E+01  5.110000000E-04  0.00000E+00  9.000E+00
     -11     1     3     3     0     0 -4.889623602E-01  3.199579932E-01  1.307292435E+01  1.308597756E+01  5.110000000E-04  0.00000E+00  9.000E+00
       4     1     1     2   502     0  2.579461624E-01 -1.293935824E-01  1.996581453E+01  1.996789996E+01  0.000000000E+00  0.00000E+00  9.000E+00
#rwgt            1          28  -720152.45059213438                3     7737079           0
<weights>
-.11145E+08
-.12921E+08
-.91948E+07
-.15707E+08
-.73674E+07
-.91681E+07
-.13910E+08
-.11169E+08
-.11123E+08
-.10822E+08
-.10811E+08
-.10962E+08
-.11005E+08
-.10839E+08
-.10822E+08
-.11226E+08
-.11212E+08
-.11464E+08
-.11508E+08
-.11495E+08
-.11440E+08
-.11504E+08
-.11523E+08
-.11418E+08
-.11327E+08
-.11286E+08
-.11370E+08
-.11437E+08
-.11374E+08
-.11482E+08
-.11516E+08
-.11184E+08
-.11217E+08
-.11138E+08
-.11178E+08
-.11207E+08
-.11103E+08
-.11135E+08
-.11081E+08
-.11167E+08
-.11127E+08
-.11186E+08
-.11103E+08
-.11508E+08
-.10812E+08
</weights>
</event>
<event>
      6  10001 -1.11453E+07  8.94427E-01 -1.00000E+00  5.86677E-01
      21    -1     0     0   502   501  0.000000000E+00  0.000000000E+00  2.498771776E-02  2.498771776E-02  0.000000000E+00  0.00000E+00  9.000E+00
      -2    -1     0     0     0   502  0.000000000E+00  0.000000000E+00 -3.219803221E+01  3.219803221E+01  0.000000000E+00  0.00000E+00  9.000E+00
      23     2     1     2     0     0 -2.322965814E-01 -5.048584877E-01 -1.839475075E+01  1.843352312E+01  1.057863708E+00  0.00000E+00  9.000E+00
      11     1     3     3     0     0 -1.168501517E-01 -2.750017647E-02 -2.080952421E-01  2.402376085E-01  5.110000000E-04  0.00000E+00  9.000E+00
     -11     1     3     3     0     0 -1.154464296E-01 -4.773583112E-01 -1.818665551E+01  1.819328551E+01  5.110000000E-04  0.00000E+00  9.000E+00
      -2     1     1     2     0   501  2.322965814E-01  5.048584877E-01 -1.377829375E+01  1.378949682E+01  0.000000000E+00  0.00000E+00  9.000E+00
#rwgt            1          14  -47863682.643463574                3     7738856           0
<weights>
-.11145E+08
-.12754E+08
-.94029E+07
-.15501E+08
-.75341E+07
-.91702E+07
-.13910E+08
-.11224E+08
-.11067E+08
-.10955E+08
-.11018E+08
-.11025E+08
-.11069E+08
-.11006E+08
-.11017E+08
-.11107E+08
-.11233E+08
-.11288E+08
-.11239E+08
-.11217E+08
-.11292E+08
-.11261E+08
-.11299E+08
-.11209E+08
-.11258E+08
-.11304E+08
-.11048E+08
-.11261E+08
-.11102E+08
-.11222E+08
-.11267E+08
-.11084E+08
-.11245E+08
-.11236E+08
-.11061E+08
-.11060E+08
-.11232E+08
-.10898E+08
-.11374E+08
-.11108E+08
-.11171E+08
-.11234E+08
-.11050E+08
-.11297E+08
-.10995E+08
</weights>
</event>
<event>
      7  10001  1.11453E+07  1.34884E+00 -1.00000E+00  4.59227E-01
       2    -1     0     0   501     0  0.000000000E+00  0.000000000E+00  1.748496030E+01  1.748496030E+01  0.000000000E+00  0.00000E+00  9.000E+00
      21    -1     0     0   502   511  0.000000000E+00  0.000000000E+00 -1.060841649E+02  1.060841649E+02  0.000000000E+00  0.00000E+00  9.000E+00
      23     2     1     2     0     0 -1.112966990E-01 -5.740949859E-02  1.037866540E+01  1.045642644E+01  1.266678908E+00  0.00000E+00  9.000E+00
      11     1     3     3     0     0 -4.004933942E-01 -5.592008086E-01  5.130659692E+00  5.176559634E+00  5.110000000E-04  0.00000E+00  9.000E+00
     -11     1     3     3     0     0  2.891966951E-01  5.017913101E-01  5.248005711E+00  5.279866802E+00  5.110000000E-04  0.00000E+00  9.000E+00
       2     1     1     2   502     0 -8.989921712E-01  9.511020674E-01  7.002498688E+00  7.123746904E+00  0.000000000E+00  0.00000E+00  9.000E+00
      21     1     1     2   501   511  1.010288870E+00 -8.936925688E-01 -1.059803687E+02  1.059889518E+02  0.000000000E+00  0.00000E+00  9.000E+00
#rwgt            1          24   360128.44040496915                3     7739850           0
<weights>
0.11145E+08
0.20552E+08
0.24273E+07
0.69865E+07
0.12455E+08
0.20742E+08
-.38542E+07
0.10984E+08
0.11325E+08
0.10426E+08
0.10204E+08
0.10809E+08
0.10667E+08
0.10363E+08
0.10245E+08
0.11286E+08
0.11531E+08
0.12040E+08
0.12237E+08
0.12182E+08
0.11978E+08
0.12221E+08
0.12145E+08
0.12297E+08
0.11362E+08
0.11436E+08
0.12559E+08
0.12060E+08
0.11908E+08
0.12266E+08
0.12230E+08
0.11383E+08
0.11234E+08
0.11086E+08
0.11301E+08
0.11043E+08
0.11298E+08
0.11887E+08
0.10303E+08
0.11359E+08
0.10959E+08
0.11288E+08
0.10996E+08
0.12115E+08
0.10282E+08
</weights>
</event>
<event>
      6  10001 -1.11453E+07  8.94427E-01 -1.00000E+00  1.48765E-01
       2    -1     0     0   501     0  0.000000000E+00  0.000000000E+00  7.595800762E+01  7.595800762E+01  0.000000000E+00  0.00000E+00  9.000E+00
      21    -1     0     0   502   501  0.000000000E+00  0.000000000E+00 -1.866878345E-02  1.866878345E-02  0.000000000E+00  0.00000E+00  9.000E+00
      23     2     1     2     0     0  3.710489980E-01 -2.128994193E-01  6.609638058E+01  6.612442637E+01  1.877560437E+00  0.00000E+00  9.000E+00
      11     1     3     3     0     0  1.768721008E-01 -1.029033681E+00  2.961242467E+01  2.963082667E+01  5.110000000E-04  0.00000E+00  9.000E+00
     -11     1     3     3     0     0  1.941768971E-01  8.161342621E-01  3.648395591E+01  3.649359970E+01  5.110000000E-04  0.00000E+00  9.000E+00
       2     1     1     2   502     0 -3.710489980E-01  2.128994193E-01  9.842958253E+00  9.852250032E+00  0.000000000E+00  0.00000E+00  9.000E+00
#rwgt            1          24  -10044283.880417701                3     7781468           0
<weights>
-.11145E+08
-.12431E+08
-.96946E+07
-.15096E+08
-.77672E+07
-.91793E+07
-.13911E+08
-.11172E+08
-.11120E+08
-.10825E+08
-.10816E+08
-.10963E+08
-.11007E+08
-.10843E+08
-.10826E+08
-.11226E+08
-.11210E+08
-.11460E+08
-.11501E+08
-.11489E+08
-.11437E+08
-.11499E+08
-.11518E+08
-.11409E+08
-.11328E+08
-.11286E+08
-.11350E+08
-.11432E+08
-.11370E+08
-.11476E+08
-.11511E+08
-.11183E+08
-.11217E+08
-.11138E+08
-.11177E+08
-.11209E+08
-.11101E+08
-.11130E+08
-.11086E+08
-.11166E+08
-.11128E+08
-.11185E+08
-.11104E+08
-.11503E+08
-.10816E+08
</weights>
</event>
<event>
      6  10001 -1.11453E+07  8.94427E-01 -1.00000E+00  1.64748E-01
      21    -1     0     0   502   501  0.000000000E+00  0.000000000E+00  2.465838345E-02  2.465838345E-02  0.000000000E+00  0.00000E+00  9.000E+00
       2    -1     0     0   501     0  0.000000000E+00  0.000000000E+00 -2.740711581E+01  2.740711581E+01  0.000000000E+00  0.00000E+00  9.000E+00
      23     2     1     2     0     0 -4.162146760E-01 -1.043402228E-01 -1.644028691E+01  1.648119352E+01  1.078232128E+00  0.00000E+00  9.000E+00
      11     1     3     3     0     0 -1.258830621E-01 -8.460948259E-02 -2.812961060E-01  3.195826501E-01  5.110000000E-04  0.00000E+00  9.000E+00
     -11     1     3     3     0     0 -2.903316139E-01 -1.973074025E-02 -1.615899080E+01  1.616161087E+01  5.110000000E-04  0.00000E+00  9.000E+00
       2     1     1     2   502     0  4.162146760E-01  1.043402228E-01 -1.094217052E+01  1.095058068E+01  0.000000000E+00  0.00000E+00  9.000E+00
#rwgt            1          17  -13003069.529123489                3     7784949           0
<weights>
-.11145E+08
-.13014E+08
-.91924E+07
-.15816E+08
-.73654E+07
-.91702E+07
-.13910E+08
-.11198E+08
-.11092E+08
-.10998E+08
-.11042E+08
-.11111E+08
-.11026E+08
-.11032E+08
-.11042E+08
-.11084E+08
-.11266E+08
-.11145E+08
-.11390E+08
-.11398E+08
-.11133E+08
-.11252E+08
-.11263E+08
-.11243E+08
-.11199E+08
-.11197E+08
-.11117E+08
-.11375E+08
-.10977E+08
-.11240E+08
-.11230E+08
-.11145E+08
-.11177E+08
-.11079E+08
-.11248E+08
-.11108E+08
-.11187E+08
-.10986E+08
-.11279E+08
-.11086E+08
-.11193E+08
-.11212E+08
-.11074E+08
-.11269E+08
-.11025E+08
</weights>
</event>
<event>
      7  10001  1.11453E+07  2.29773E+00 -1.00000E+00  3.30025E-01
      21    -1     0     0   511   502  0.000000000E+00  0.000000000E+00  5.803113350E-01  5.803113350E-01  0.000000000E+00  0.00000E+00  9.000E+00
       2    -1     0     0   501     0  0.000000000E+00  0.000000000E+00 -4.527674833E+01  4.527674833E+01  0.000000000E+00  0.00000E+00  9.000E+00
      23     2     1     2     0     0 -2.557546538E+00 -6.458110684E-01 -2.708425558E+01  2.727392099E+01  1.830778520E+00  0.00000E+00  9.000E+00
      11     1     3     3     0     0 -5.803788892E-01 -8.389756881E-01 -5.162154212E+00  5.261991660E+00  5.110000000E-04  0.00000E+00  9.000E+00
     -11     1     3     3     0     0 -1.977167649E+00  1.931646197E-01 -2.192210136E+01  2.201192933E+01  5.110000000E-04  0.00000E+00  9.000E+00
      21     1     1     2   501   502  1.813836541E+00 -1.528230088E+00 -3.168784045E+00  3.958116032E+00  7.300048300E-08  0.00000E+00  9.000E+00
       2     1     1     2   511     0  7.437099978E-01  2.174041157E+00 -1.444339738E+01  1.462502264E+01  0.000000000E+00  0.00000E+00  9.000E+00
#rwgt            1           8   450129.83053870557                3     7787538           0
<weights>
0.11145E+08
0.11503E+08
0.10739E+08
0.12189E+08
0.98014E+07
0.10390E+08
0.12037E+08
0.11197E+08
0.11092E+08
0.11000E+08
0.11043E+08
0.11134E+08
0.10997E+08
0.11032E+08
0.11041E+08
0.11058E+08
0.11303E+08
0.11119E+08
0.11429E+08
0.11441E+08
0.11105E+08
0.11255E+08
0.11261E+08
0.11263E+08
0.11183E+08
0.11185E+08
0.11127E+08
0.11414E+08
0.10929E+08
0.11250E+08
0.11226E+08
0.11153E+08
0.11169E+08
0.11058E+08
0.11277E+08
0.11077E+08
0.11217E+08
0.10999E+08
0.11266E+08
0.11082E+08
0.11195E+08
0.11229E+08
0.11056E+08
0.11267E+08
0.11027E+08
</weights>
</event>
<event>
      6  10001  1.11453E+07  8.94427E-01 -1.00000E+00  6.07218E-01
      21    -1     0     0   502   501  0.000000000E+00  0.000000000E+00  4.674545371E+01  4.674545371E+01  0.000000000E+00  0.00000E+00  9.000E+00
       2    -1     0     0   501     0  0.000000000E+00  0.000000000E+00 -3.751226410E-02  3.751226410E-02  0.000000000E+00  0.00000E+00  9.000E+00
      23     2     1     2     0     0 -2.075792453E-01 -3.641542839E-01  3.081589903E+01  3.088539668E+01  2.027904641E+00  0.00000E+00  9.000E+00
      11     1     3     3     0     0  4.944259333E-01 -3.637433703E-01  2.690444029E+01  2.691144131E+01  5.110000000E-04  0.00000E+00  9.000E+00
     -11     1     3     3     0     0 -7.020051785E-01 -4.109136556E-04  3.911458749E+00  3.973955365E+00  5.110000000E-04  0.00000E+00  9.000E+00
       2     1     1     2   502     0  2.075792453E-01  3.641542839E-01  1.589204241E+01  1.589756929E+01  0.000000000E+00  0.00000E+00  9.000E+00
#rwgt            1          17   484126.99676333636                3     7788746           0
<weights>
0.11145E+08
0.13575E+08
0.88426E+07
0.11948E+08
0.99558E+07
0.12197E+08
0.92628E+07
0.10715E+08
0.11756E+08
0.10779E+08
0.10701E+08
0.10975E+08
0.10901E+08
0.10774E+08
0.10720E+08
0.11162E+08
0.11373E+08
0.11571E+08
0.11606E+08
0.11572E+08
0.11551E+08
0.11634E+08
0.11604E+08
0.11666E+08
0.11227E+08
0.11357E+08
0.11525E+08
0.11585E+08
0.11397E+08
0.11636E+08
0.11619E+08
0.11170E+08
0.11270E+08
0.11128E+08
0.11207E+08
0.10898E+08
0.11458E+08
0.11291E+08
0.10937E+08
0.11193E+08
0.11101E+08
0.11242E+08
0.11043E+08
0.11600E+08
0.10733E+08
</weights>
</event>
<event>
      6  10001 -1.11453E+07  8.94427E-01 -1.00000E+00  1.93750E-01
       2    -1     0     0   501     0  0.000000000E+00  0.000000000E+00  3.333080482E+01  3.333080482E+01  0.000000000E+00  0.00000E+00  9.000E+00
      -2    -1     0     0     0   502  0.000000000E+00  0.000000000E+00 -2.286724074E-02  2.286724074E-02  0.000000000E+00  0.00000E+00  9.000E+00
      23     2     1     2     0     0  3.433307758E-01 -3.405722698E-01  2.720914335E+01  2.723573478E+01  1.101772116E+00  0.00000E+00  9.000E+00
      11     1     3     3     0     0 -1.600845469E-01  3.261147809E-01  9.373809557E+00  9.380846646E+00  5.110000000E-04  0.00000E+00  9.000E+00
     -11     1     3     3     0     0  5.034153226E-01 -6.666870507E-01  1.783533379E+01  1.785488814E+01  5.110000000E-04  0.00000E+00  9.000E+00
      21     1     1     2   501   502 -3.433307758E-01  3.405722698E-01  6.098794226E+00  6.117937276E+00  1.192092896E-07  0.00000E+00  9.000E+00
#rwgt            1          23  -2001751.7842360458                3     7801666           0
<weights>
-.11145E+08
-.12845E+08
-.93118E+07
-.15629E+08
-.74616E+07
-.91597E+07
-.13909E+08
-.11112E+08
-.11203E+08
-.10813E+08
-.10793E+08
-.10962E+08
-.10989E+08
-.10827E+08
-.10804E+08
-.11219E+08
-.11235E+08
-.11483E+08
-.11523E+08
-.11508E+08
-.11459E+08
-.11526E+08
-.11538E+08
-.11451E+08
-.11317E+08
-.11299E+08
-.11375E+08
-.11461E+08
-.11380E+08
-.11507E+08
-.11535E+08
-.11184E+08
-.11224E+08
-.11136E+08
-.11182E+08
-.11167E+08
-.11149E+08
-.11160E+08
-.11057E+08
-.11172E+08
-.11122E+08
-.11193E+08
-.11095E+08
-.11524E+08
-.10798E+08
</weights>
</event>
<event>
      6  10001 -1.11453E+07  8.94427E-01 -1.00000E+00  4.10328E-01
      -2    -1     0     0     0   502  0.000000000E+00  0.000000000E+00  2.490305084E-02  2.490305084E-02  0.000000000E+00  0.00000E+00  9.000E+00
       2    -1     0     0   501     0  0.000000000E+00  0.000000000E+00 -1.017537762E+02  1.017537762E+02  0.000000000E+00  0.00000E+00  9.000E+00
      23     2     1     2     0     0  2.826488618E-01 -4.597365741E-02 -1.004690211E+02  1.004866919E+02  1.862540729E+00  0.00000E+00  9.000E+00
      11     1     3     3     0     0  5.361313426E-02  2.146543140E-02 -8.722327236E-02  1.046101968E-01  5.110000000E-04  0.00000E+00  9.000E+00
     -11     1     3     3     0     0  2.290357275E-01 -6.743908881E-02 -1.003817978E+02  1.003820818E+02  5.110000000E-04  0.00000E+00  9.000E+00
      21     1     1     2   501   502 -2.826488618E-01  4.597365741E-02 -1.259852104E+00  1.291987338E+00  1.192092896E-07  0.00000E+00  9.000E+00
#rwgt            1           8  -4493479.8489758065                3     7802730           0
<weights>
-.11147E+08
-.12570E+08
-.95741E+07
-.15325E+08
-.76730E+07
-.91420E+07
-.13910E+08
-.11154E+08
-.11140E+08
-.11153E+08
-.11169E+08
-.11160E+08
-.11123E+08
-.11169E+08
-.11169E+08
-.11191E+08
-.11047E+08
-.11094E+08
-.11149E+08
-.11154E+08
-.11090E+08
-.11120E+08
-.11118E+08
-.11231E+08
-.11024E+08
-.11069E+08
-.11181E+08
-.11202E+08
-.10994E+08
-.11129E+08
-.11114E+08
-.11124E+08
-.11161E+08
-.11102E+08
-.11200E+08
-.11138E+08
-.11152E+08
-.11129E+08
-.11175E+08
-.11105E+08
-.11180E+08
-.11194E+08
-.11098E+08
-.11126E+08
-.11164E+08
</weights>
</event>
<event>
      6  10001  1.11453E+07  8.94427E-01 -1.00000E+00  5.63808E-01
      -2    -1     0     0     0   502  0.000000000E+00  0.000000000E+00  1.175528696E+02  1.175528696E+02  0.000000000E+00  0.00000E+00  9.000E+00
       2    -1     0     0   501     0  0.000000000E+00  0.000000000E+00 -3.220399997E-02  3.220399997E-02  0.000000000E+00  0.00000E+00  9.000E+00
      23     2     1     2     0     0  3.214951784E-02  7.664938270E-01  7.872017157E+01  7.877699604E+01  2.891564941E+00  0.00000E+00  9.000E+00
      11     1     3     3     0     0  5.319449775E-01  1.105649274E+00  7.484321198E+01  7.485326851E+01  5.110000000E-04  0.00000E+00  9.000E+00
     -11     1     3     3     0     0 -4.997954597E-01 -3.391554472E-01  3.876959582E+00  3.923727536E+00  5.110000000E-04  0.00000E+00  9.000E+00
      21     1     1     2   501   502 -3.214951784E-02 -7.664938270E-01  3.880049408E+01  3.880807760E+01  4.768371582E-07  0.00000E+00  9.000E+00
#rwgt            1           8   345665.00332520128                3     7803019           0
<weights>
0.11145E+08
0.13065E+08
0.93625E+07
0.11276E+08
0.10430E+08
0.12240E+08
0.91977E+07
0.10774E+08
0.11679E+08
0.10782E+08
0.10712E+08
0.10972E+08
0.10913E+08
0.10780E+08
0.10730E+08
0.11172E+08
0.11353E+08
0.11560E+08
0.11601E+08
0.11569E+08
0.11539E+08
0.11621E+08
0.11598E+08
0.11645E+08
0.11239E+08
0.11345E+08
0.11542E+08
0.11568E+08
0.11400E+08
0.11621E+08
0.11610E+08
0.11174E+08
0.11263E+08
0.11129E+08
0.11204E+08
0.10941E+08
0.11410E+08
0.11275E+08
0.10951E+08
0.11191E+08
0.11103E+08
0.11234E+08
0.11051E+08
0.11592E+08
0.10740E+08
</weights>
</event>
<event>
      7  10001  1.11453E+07  1.59203E+00 -1.00000E+00  4.02293E-01
       2    -1     0     0   501     0  0.000000000E+00  0.000000000E+00  5.720585460E+00  5.720585460E+00  0.000000000E+00  0.00000E+00  9.000E+00
      21    -1     0     0   511   501  0.000000000E+00  0.000000000E+00 -2.893168222E+01  2.893168222E+01  0.000000000E+00  0.00000E+00  9.000E+00
      23     2     1     2     0     0  6.565131870E-01 -3.823141494E-01  3.244699985E+00  3.627690895E+00  1.433488599E+00  0.00000E+00  9.000E+00
      11     1     3     3     0     0  7.336735111E-01 -8.445814665E-01  1.915316830E+00  2.218114852E+00  5.110000000E-04  0.00000E+00  9.000E+00
     -11     1     3     3     0     0 -7.716032416E-02  4.622673171E-01  1.329383155E+00  1.409576043E+00  5.110000000E-04  0.00000E+00  9.000E+00
       2     1     1     2   502     0  8.493855967E-01  8.988665579E-01  2.093194607E+00  2.431230273E+00  0.000000000E+00  0.00000E+00  9.000E+00
      21     1     1     2   511   502 -1.505898784E+00 -5.165524085E-01 -2.854899135E+01  2.859334651E+01  3.371747881E-07  0.00000E+00  9.000E+00
#rwgt            1          24   550649.64182195440                3     7804887           0
<weights>
0.11145E+08
0.16901E+08
0.58367E+07
0.10042E+08
0.10790E+08
0.15912E+08
0.35606E+07
0.11121E+08
0.11168E+08
0.10611E+08
0.10497E+08
0.10872E+08
0.10841E+08
0.10588E+08
0.10522E+08
0.11266E+08
0.11368E+08
0.11775E+08
0.11851E+08
0.11831E+08
0.11728E+08
0.11875E+08
0.11852E+08
0.11769E+08
0.11394E+08
0.11406E+08
0.11622E+08
0.11770E+08
0.11632E+08
0.11884E+08
0.11886E+08
0.11288E+08
0.11224E+08
0.11108E+08
0.11243E+08
0.11162E+08
0.11160E+08
0.11501E+08
0.10684E+08
0.11266E+08
0.11041E+08
0.11230E+08
0.11056E+08
0.11825E+08
0.10535E+08
</weights>
</event>
<event>
      7  10001  1.11453E+07  5.81202E+00 -1.00000E+00  2.26497E-01
      21    -1     0     0   502   501  0.000000000E+00  0.000000000E+00  1.265072562E+00  1.265072562E+00  0.000000000E+00  0.00000E+00  9.000E+00
      -4    -1     0     0     0   502  0.000000000E+00  0.000000000E+00 -7.585708542E+00  7.585708542E+00  0.000000000E+00  0.00000E+00  9.000E+00
      23     2     1     2     0     0  2.224383634E-01  5.336011312E-01 -5.769824216E+00  5.955957373E+00  1.359539535E+00  0.00000E+00  9.000E+00
      11     1     3     3     0     0 -5.015539884E-01 -6.253053479E-02 -2.668061705E+00  2.715514683E+00  5.110000000E-04  0.00000E+00  9.000E+00
     -11     1     3     3     0     0  7.239923518E-01  5.961316660E-01 -3.101762511E+00  3.240442690E+00  5.110000000E-04  0.00000E+00  9.000E+00
      -4     1     1     2     0   511  7.882826185E-02  1.126021350E-01 -1.611186295E+00  1.617038779E+00  0.000000000E+00  0.00000E+00  9.000E+00
      21     1     1     2   511   501 -3.012666253E-01 -6.462032662E-01  1.060374530E+00  1.277784953E+00  1.861154437E-07  0.00000E+00  9.000E+00
#rwgt            2         154   878821.30622087629                3     7840961           0
<weights>
0.11145E+08
0.11531E+08
0.10451E+08
0.14015E+08
0.83742E+07
0.91702E+07
0.13910E+08
0.11224E+08
0.11064E+08
0.10821E+08
0.10843E+08
0.10944E+08
0.11045E+08
0.10850E+08
0.10850E+08
0.11219E+08
0.11205E+08
0.11441E+08
0.11458E+08
0.11456E+08
0.11419E+08
0.11460E+08
0.11506E+08
0.11277E+08
0.11404E+08
0.11375E+08
0.11046E+08
0.11426E+08
0.11300E+08
0.11423E+08
0.11474E+08
0.11159E+08
0.11229E+08
0.11140E+08
0.11168E+08
0.11281E+08
0.11026E+08
0.11001E+08
0.11186E+08
0.11148E+08
0.11145E+08
0.11162E+08
0.11128E+08
0.11483E+08
0.10831E+08
</weights>
</event>
<event>
      7  10001  1.11453E+07  9.48475E+00 -1.00000E+00  1.97914E-01
       2    -1     0     0   501     0  0.000000000E+00  0.000000000E+00  6.642235933E+02  6.642235933E+02  0.000000000E+00  0.00000E+00  9.000E+00
      21    -1     0     0   502   501  0.000000000E+00  0.000000000E+00 -3.732526083E-02  3.732526083E-02  0.000000000E+00  0.00000E+00  9.000E+00
      23     2     1     2     0     0  3.656643541E-01 -1.352310418E+00  3.869707089E+02  3.869760926E+02  1.484690401E+00  0.00000E+00  9.000E+00
      11     1     3     3     0     0 -4.123822570E-01 -1.153408607E+00  2.116486101E+02  2.116521547E+02  5.110000000E-04  0.00000E+00  9.000E+00
     -11     1     3     3     0     0  7.780466110E-01 -1.989018109E-01  1.753220987E+02  1.753239380E+02  5.110000000E-04  0.00000E+00  9.000E+00
       2     1     1     2   512     0 -4.788982076E-02 -1.375609862E+00  2.191792224E+02  2.191835443E+02  0.000000000E+00  0.00000E+00  9.000E+00
      21     1     1     2   502   512 -3.177745333E-01  2.727920280E+00  5.803633683E+01  5.810128159E+01  1.651812370E-06  0.00000E+00  9.000E+00
#rwgt            2         248   57415266.796442777                3     7841041           0
<weights>
0.11145E+08
0.10629E+08
0.11502E+08
0.12918E+08
0.92157E+07
0.91702E+07
0.13910E+08
0.11168E+08
0.11124E+08
0.10815E+08
0.10801E+08
0.10959E+08
0.10999E+08
0.10831E+08
0.10812E+08
0.11227E+08
0.11217E+08
0.11474E+08
0.11519E+08
0.11506E+08
0.11449E+08
0.11516E+08
0.11533E+08
0.11430E+08
0.11329E+08
0.11290E+08
0.11376E+08
0.11447E+08
0.11383E+08
0.11495E+08
0.11528E+08
0.11188E+08
0.11217E+08
0.11137E+08
0.11180E+08
0.11205E+08
0.11105E+08
0.11147E+08
0.11069E+08
0.11170E+08
0.11124E+08
0.11187E+08
0.11101E+08
0.11518E+08
0.10803E+08
</weights>
</event>
<event>
      6  10001 -1.11453E+07  8.94427E-01 -1.00000E+00  2.01085E-01
      21    -1     0     0   502   501  0.000000000E+00  0.000000000E+00  2.004469468E-02  2.004469468E-02  0.000000000E+00  0.00000E+00  9.000E+00
      -2    -1     0     0     0   502  0.000000000E+00  0.000000000E+00 -2.367198224E+01  2.367198224E+01  0.000000000E+00  0.00000E+00  9.000E+00
      23     2     1     2     0     0 -2.389350649E-01  1.533042512E-01 -1.916977998E+01  1.920088804E+01  1.055009368E+00  0.00000E+00  9.000E+00
      11     1     3     3     0     0 -5.254738563E-01  1.469569263E-01 -1.735839820E+01  1.736697174E+01  5.110000000E-04  0.00000E+00  9.000E+00
     -11     1     3     3     0     0  2.865387914E-01  6.347324848E-03 -1.811381782E+00  1.833916298E+00  5.110000000E-04  0.00000E+00  9.000E+00
      -2     1     1     2     0   501  2.389350649E-01 -1.533042512E-01 -4.482157562E+00  4.491138894E+00  0.000000000E+00  0.00000E+00  9.000E+00
#rwgt            1          14  -4505434.0913815247                3     7841520           0
<weights>
-.11145E+08
-.12902E+08
-.92867E+07
-.15680E+08
-.74410E+07
-.91702E+07
-.13910E+08
-.11215E+08
-.11074E+08
-.10923E+08
-.10976E+08
-.11013E+08
-.11051E+08
-.10967E+08
-.10977E+08
-.11120E+08
-.11246E+08
-.11325E+08
-.11292E+08
-.11272E+08
-.11325E+08
-.11307E+08
-.11352E+08
-.11231E+08
-.11289E+08
-.11335E+08
-.11038E+08
-.11304E+08
-.11136E+08
-.11269E+08
-.11313E+08
-.11089E+08
-.11253E+08
-.11220E+08
-.11080E+08
-.11064E+08
-.11233E+08
-.10912E+08
-.11334E+08
-.11117E+08
-.11164E+08
-.11227E+08
-.11058E+08
-.11341E+08
-.10957E+08
</weights>
</event>
<event>
      7  10001  1.11453E+07  3.09544E+00 -1.00000E+00  2.88408E-01
      21    -1     0     0   502   501  0.000000000E+00  0.000000000E+00  1.204894527E-01  1.204894527E-01  0.000000000E+00  0.00000E+00  9.000E+00
      -4    -1     0     0     0   502  0.000000000E+00  0.000000000E+00 -3.687311847E+01  3.687311847E+01  0.000000000E+00  0.00000E+00  9.000E+00
      23     2     1     2     0     0  3.608586269E-01  2.459116752E-01 -9.588704229E+00  9.677205614E+00  1.230596688E+00  0.00000E+00  9.000E+00
      11     1     3     3     0     0  3.536020312E-01  1.809136746E-01 -8.496537595E-01  9.379104042E-01  5.110000000E-04  0.00000E+00  9.000E+00
     -11     1     3     3     0     0  7.256595654E-03  6.499800065E-02 -8.739050469E+00  8.739295210E+00  5.110000000E-04  0.00000E+00  9.000E+00
      -4     1     1     2     0   511 -1.796020524E-01 -1.223937092E-02 -3.196941218E-02  1.828352885E-01  0.000000000E+00  0.00000E+00  9.000E+00
      21     1     1     2   511   501 -1.812565745E-01 -2.336723043E-01 -2.713195537E+01  2.713356702E+01  0.000000000E+00  0.00000E+00  9.000E+00
#rwgt            2         154   2392269.6261475389                3     7845999           0
<weights>
0.11145E+08
0.11661E+08
0.10315E+08
0.14173E+08
0.82649E+07
0.91702E+07
0.13910E+08
0.11242E+08
0.11050E+08
0.10905E+08
0.10994E+08
0.10961E+08
0.11145E+08
0.10977E+08
0.10996E+08
0.11189E+08
0.11127E+08
0.11279E+08
0.11289E+08
0.11283E+08
0.11274E+08
0.11279E+08
0.11320E+08
0.11163E+08
0.11328E+08
0.11295E+08
0.11063E+08
0.11264E+08
0.11166E+08
0.11217E+08
0.11289E+08
0.11093E+08
0.11243E+08
0.11169E+08
0.11122E+08
0.11313E+08
0.10996E+08
0.10780E+08
0.11506E+08
0.11076E+08
0.11209E+08
0.11128E+08
0.11164E+08
0.11334E+08
0.10956E+08
</weights>
</event>
<event>
      7  10001  1.11453E+07  8.94427E-01 -1.00000E+00  6.07649E-01
       2    -1     0     0   501     0  0.000000000E+00  0.000000000E+00  1.918590084E+00  1.918590084E+00  0.000000000E+00  0.00000E+00  9.000E+00
      21    -1     0     0   512   502  0.000000000E+00  0.000000000E+00 -9.512540247E+00  9.512540247E+00  0.000000000E+00  0.00000E+00  9.000E+00
      23     2     1     2     0     0  1.123403027E-01 -5.167592432E-01  1.531483404E+00  2.258672684E+00  1.573690063E+00  0.00000E+00  9.000E+00
      11     1     3     3     0     0 -1.621527161E-01 -1.047223082E+00  9.114142476E-01  1.397728829E+00  5.110000000E-04  0.00000E+00  9.000E+00
     -11     1     3     3     0     0  2.744930188E-01  5.304638386E-01  6.200691564E-01  8.609438549E-01  5.110000000E-04  0.00000E+00  9.000E+00
      21     1     1     2   501   502  9.383418365E-02  6.662878249E-01 -6.661030555E+00  6.694928855E+00  1.192092896E-07  0.00000E+00  9.000E+00
       2     1     1     2   512     0 -2.061744864E-01 -1.495285817E-01 -2.464403012E+00  2.477528793E+00  0.000000000E+00  0.00000E+00  9.000E+00
#rwgt            2         249   701934.36950004962                3     7846668           0
<weights>
0.11145E+08
0.10858E+08
0.11261E+08
0.13196E+08
0.90233E+07
0.91702E+07
0.13910E+08
0.11210E+08
0.11078E+08
0.10897E+08
0.10924E+08
0.10986E+08
0.11075E+08
0.10928E+08
0.10930E+08
0.11213E+08
0.11159E+08
0.11360E+08
0.11366E+08
0.11363E+08
0.11343E+08
0.11370E+08
0.11407E+08
0.11234E+08
0.11338E+08
0.11289E+08
0.11081E+08
0.11331E+08
0.11262E+08
0.11336E+08
0.11382E+08
0.11147E+08
0.11213E+08
0.11144E+08
0.11159E+08
0.11252E+08
0.11052E+08
0.10994E+08
0.11224E+08
0.11132E+08
0.11158E+08
0.11161E+08
0.11129E+08
0.11394E+08
0.10911E+08
</weights>
</event>
<event>
      6  10001  1.11453E+07  8.94427E-01 -1.00000E+00  5.86764E-01
      -2    -1     0     0     0   502  0.000000000E+00  0.000000000E+00  5.087628442E-01  5.087628442E-01  0.000000000E+00  0.00000E+00  9.000E+00
       2    -1     0     0   501     0  0.000000000E+00  0.000000000E+00 -2.223683441E+00  2.223683441E+00  0.000000000E+00  0.00000E+00  9.000E+00
      23     2     1     2     0     0  2.231476311E-01  1.333312144E-01 -9.320470973E-02  1.090029013E+00  1.054468612E+00  0.00000E+00  9.000E+00
      11     1     3     3     0     0  5.561443644E-01  9.762186077E-02  2.436924556E-01  6.149901266E-01  5.110000000E-04  0.00000E+00  9.000E+00
     -11     1     3     3     0     0 -3.329967333E-01  3.570935361E-02 -3.368971653E-01  4.750388862E-01  5.110000000E-04  0.00000E+00  9.000E+00
      21     1     1     2   501   502 -2.231476311E-01 -1.333312144E-01 -1.621715887E+00  1.642417272E+00  2.107342426E-08  0.00000E+00  9.000E+00
#rwgt            1           8   109027.55153827567                3     7848059           0
<weights>
0.11145E+08
0.12670E+08
0.10042E+08
0.73684E+07
0.12612E+08
0.14249E+08
0.61129E+07
0.10828E+08
0.11478E+08
0.10780E+08
0.10686E+08
0.11006E+08
0.10845E+08
0.10766E+08
0.10709E+08
0.11080E+08
0.11514E+08
0.11577E+08
0.11613E+08
0.11594E+08
0.11553E+08
0.11657E+08
0.11608E+08
0.11556E+08
0.11297E+08
0.11469E+08
0.11067E+08
0.11701E+08
0.11261E+08
0.11672E+08
0.11621E+08
0.11170E+08
0.11274E+08
0.11114E+08
0.11239E+08
0.10753E+08
0.11586E+08
0.11317E+08
0.10878E+08
0.11190E+08
0.11099E+08
0.11286E+08
0.10995E+08
0.11609E+08
0.10727E+08
</weights>
</event>
<event>
      6  10001 -1.11453E+07  8.94427E-01 -1.00000E+00  2.04281E-01
      21    -1     0     0   502   501  0.000000000E+00  0.000000000E+00  1.691793467E-02  1.691793467E-02  0.000000000E+00  0.00000E+00  9.000E+00
       3    -1     0     0   501     0  0.000000000E+00  0.000000000E+00 -2.633400462E+01  2.633400462E+01  0.000000000E+00  0.00000E+00  9.000E+00
      23     2     1     2     0     0 -2.681327662E-01  4.093968871E-02 -1.938216354E+01  1.941069703E+01  1.016525768E+00  0.00000E+00  9.000E+00
      11     1     3     3     0     0 -2.347701429E-01  4.317579593E-01 -5.215401349E+00  5.238505841E+00  5.110000000E-04  0.00000E+00  9.000E+00
     -11     1     3     3     0     0 -3.336262333E-02 -3.908182706E-01 -1.416676219E+01  1.417219119E+01  5.110000000E-04  0.00000E+00  9.000E+00
       3     1     1     2   502     0  2.681327662E-01 -4.093968871E-02 -6.934923147E+00  6.940225522E+00  0.000000000E+00  0.00000E+00  9.000E+00
#rwgt            1          18  -542294.36451647012                3     7850280           0
<weights>
-.11145E+08
-.12768E+08
-.93970E+07
-.15518E+08
-.75294E+07
-.91702E+07
-.13910E+08
-.11203E+08
-.11086E+08
-.10897E+08
-.11023E+08
-.11178E+08
-.10887E+08
-.10972E+08
-.10985E+08
-.11727E+08
-.10355E+08
-.11298E+08
-.11272E+08
-.11307E+08
-.11235E+08
-.11264E+08
-.11389E+08
-.11187E+08
-.11158E+08
-.10024E+08
-.11934E+08
-.10701E+08
-.11927E+08
-.11193E+08
-.11354E+08
-.11185E+08
-.11154E+08
-.11202E+08
-.11099E+08
-.11275E+08
-.11029E+08
-.10909E+08
-.11342E+08
-.11127E+08
-.11155E+08
-.11218E+08
-.11068E+08
-.11335E+08
-.10962E+08
</weights>
</event>
<event>
      6  10001 -1.11453E+07  8.94427E-01 -1.00000E+00  5.60780E-01
      21    -1     0     0   502   501  0.000000000E+00  0.000000000E+00  1.794755231E-02  1.794755231E-02  0.000000000E+00  0.00000E+00  9.000E+00
      -3    -1     0     0     0   502  0.000000000E+00  0.000000000E+00 -1.582146902E+02  1.582146902E+02  0.000000000E+00  0.00000E+00  9.000E+00
      23     2     1     2     0     0 -2.652183782E-01 -6.287825767E-02 -1.557421220E+02  1.557629299E+02  2.531296997E+00  0.00000E+00  9.000E+00
      11     1     3     3     0     0 -1.204055015E-01  1.200667543E+00 -9.373068155E+01  9.373844869E+01  5.110000000E-04  0.00000E+00  9.000E+00
     -11     1     3     3     0     0 -1.448128766E-01 -1.263545801E+00 -6.201144047E+01  6.202448120E+01  5.110000000E-04  0.00000E+00  9.000E+00
      -3     1     1     2     0   501  2.652183782E-01  6.287825767E-02 -2.454620663E+00  2.469707890E+00  0.000000000E+00  0.00000E+00  9.000E+00
#rwgt            1          13  -703469.65607092564                3     7851459           0
<weights>
-.11145E+08
-.11214E+08
-.11205E+08
-.13630E+08
-.89782E+07
-.91702E+07
-.13910E+08
-.11053E+08
-.11233E+08
-.11259E+08
-.11344E+08
-.11494E+08
-.10872E+08
-.11326E+08
-.11276E+08
-.12842E+08
-.89900E+07
-.11749E+08
-.99977E+07
-.98752E+07
-.11809E+08
-.10964E+08
-.10963E+08
-.96079E+07
-.12690E+08
-.11986E+08
-.98204E+07
-.99839E+07
-.12231E+08
-.10907E+08
-.11048E+08
-.11277E+08
-.10958E+08
-.11201E+08
-.11099E+08
-.11121E+08
-.11160E+08
-.11229E+08
-.11079E+08
-.11082E+08
-.11190E+08
-.11252E+08
-.11031E+08
-.10970E+08
-.11302E+08
</weights>
</event>
<event>
      7  10001  1.11453E+07  2.53313E+00 -1.00000E+00  3.15088E-01
      21    -1     0     0   502   501  0.000000000E+00  0.000000000E+00  3.394253949E-01  3.394253949E-01  0.000000000E+00  0.00000E+00  9.000E+00
      -1    -1     0     0     0   502  0.000000000E+00  0.000000000E+00 -4.109591928E+01  4.109591928E+01  0.000000000E+00  0.00000E+00  9.000E+00
      23     2     1     2     0     0 -2.576420048E-01 -3.220081444E-01 -3.977682563E+01  3.980729894E+01  1.501706769E+00  0.00000E+00  9.000E+00
      11     1     3     3     0     0 -8.845179797E-01 -1.533504901E-01 -2.531069298E+01  2.532660790E+01  5.110000000E-04  0.00000E+00  9.000E+00
     -11     1     3     3     0     0  6.268759750E-01 -1.686576542E-01 -1.446613265E+01  1.448069104E+01  5.110000000E-04  0.00000E+00  9.000E+00
      -1     1     1     2     0   511  4.997559534E-01 -1.810885509E-02 -1.087398674E+00  1.196879200E+00  0.000000000E+00  0.00000E+00  9.000E+00
      21     1     1     2   511   501 -2.421139487E-01  3.401169995E-01  1.077304172E-01  4.311665342E-01  2.292264690E-07  0.00000E+00  9.000E+00
#rwgt            2         163   576766.55201376637                3     7853398           0
<weights>
0.11145E+08
0.11103E+08
0.10964E+08
0.13495E+08
0.87846E+07
0.91702E+07
0.13910E+08
0.11222E+08
0.11069E+08
0.10995E+08
0.11060E+08
0.11043E+08
0.11082E+08
0.11049E+08
0.11059E+08
0.11090E+08
0.11230E+08
0.11254E+08
0.11179E+08
0.11154E+08
0.11263E+08
0.11216E+08
0.11244E+08
0.11193E+08
0.11217E+08
0.11269E+08
0.11061E+08
0.11218E+08
0.11069E+08
0.11181E+08
0.11221E+08
0.11085E+08
0.11229E+08
0.11258E+08
0.11038E+08
0.11042E+08
0.11245E+08
0.10916E+08
0.11377E+08
0.11105E+08
0.11171E+08
0.11252E+08
0.11031E+08
0.11250E+08
0.11038E+08
</weights>
</event>
<event>
      6  10001 -1.11453E+07  8.94427E-01 -1.00000E+00  6.54142E-01
      -1    -1     0     0     0   502  0.000000000E+00  0.000000000E+00  5.349466765E+01  5.349466765E+01  0.000000000E+00  0.00000E+00  9.000E+00
      21    -1     0     0   502   501  0.000000000E+00  0.000000000E+00 -1.731300058E-02  1.731300058E-02  0.000000000E+00  0.00000E+00  9.000E+00
      23     2     1     2     0     0  2.660380971E-01  2.660712145E-01  4.957250461E+01  4.958904502E+01  1.224174071E+00  0.00000E+00  9.000E+00
      11     1     3     3     0     0 -4.074065076E-01 -2.006256978E-01  1.523844605E+01  1.524521135E+01  5.110000000E-04  0.00000E+00  9.000E+00
     -11     1     3     3     0     0  6.734446047E-01  4.666969123E-01  3.433405857E+01  3.434383368E+01  5.110000000E-04  0.00000E+00  9.000E+00
      -1     1     1     2     0   501 -2.660380971E-01 -2.660712145E-01  3.904850030E+00  3.922935625E+00  0.000000000E+00  0.00000E+00  9.000E+00
#rwgt            1           9  -1597511.5945675990                3     7858836           0
<weights>
-.11144E+08
-.12438E+08
-.96856E+07
-.15126E+08
-.77609E+07
-.91637E+07
-.13907E+08
-.11173E+08
-.11115E+08
-.10828E+08
-.10821E+08
-.10962E+08
-.11010E+08
-.10846E+08
-.10831E+08
-.11224E+08
-.11205E+08
-.11452E+08
-.11491E+08
-.11480E+08
-.11430E+08
-.11490E+08
-.11510E+08
-.11395E+08
-.11327E+08
-.11284E+08
-.11325E+08
-.11424E+08
-.11362E+08
-.11466E+08
-.11502E+08
-.11179E+08
-.11215E+08
-.11137E+08
-.11175E+08
-.11210E+08
-.11096E+08
-.11120E+08
-.11093E+08
-.11162E+08
-.11128E+08
-.11182E+08
-.11104E+08
-.11495E+08
-.10820E+08
</weights>
</event>
<event>
      7  10001  1.11453E+07  7.91648E+00 -1.00000E+00  2.07557E-01
      21    -1     0     0   502   501  0.000000000E+00  0.000000000E+00  9.820746129E-02  9.820746129E-02  0.000000000E+00  0.00000E+00  9.000E+00
       2    -1     0     0   501     0  0.000000000E+00  0.000000000E+00 -2.419740145E+02  2.419740145E+02  0.000000000E+00  0.00000E+00  9.000E+00
      23     2     1     2     0     0 -7.416113792E-01  2.747750365E+00 -6.631084903E+01  6.642667716E+01  2.697150153E+00  0.00000E+00  9.000E+00
      11     1     3     3     0     0 -1.486075566E+00  1.312712589E+00 -4.911300624E+01  4.915301636E+01  5.110000000E-04  0.00000E+00  9.000E+00
     -11     1     3     3     0     0  7.444641871E-01  1.435037776E+00 -1.719784279E+01  1.727366080E+01  5.110000000E-04  0.00000E+00  9.000E+00
       2     1     1     2   511     0  6.697997148E-01  1.170520883E+00 -3.501325456E+01  3.503921726E+01  0.000000000E+00  0.00000E+00  9.000E+00
      21     1     1     2   502   511  7.181166438E-02 -3.918271247E+00 -1.405517035E+02  1.406063276E+02  2.697398305E-06  0.00000E+00  9.000E+00
#rwgt            1          17   2401169.6191118415                3     7859401           0
<weights>
0.11145E+08
0.12246E+08
0.98863E+07
0.12848E+08
0.93462E+07
0.10591E+08
0.11729E+08
0.11131E+08
0.11158E+08
0.11164E+08
0.11163E+08
0.11095E+08
0.11202E+08
0.11163E+08
0.11162E+08
0.11333E+08
0.10856E+08
0.11250E+08
0.10949E+08
0.10928E+08
0.11259E+08
0.11109E+08
0.11149E+08
0.11181E+08
0.11064E+08
0.11132E+08
0.11143E+08
0.11028E+08
0.11216E+08
0.11106E+08
0.11146E+08
0.11050E+08
0.11234E+08
0.11234E+08
0.11021E+08
0.11143E+08
0.11144E+08
0.11166E+08
0.11124E+08
0.11166E+08
0.11123E+08
0.11167E+08
0.11121E+08
0.11125E+08
0.11164E+08
</weights>
</event>
<event>
      7  10001  1.11453E+07  5.45255E+00 -1.00000E+00  2.30798E-01
      21    -1     0     0   502   501  0.000000000E+00  0.000000000E+00  1.584099149E+01  1.584099149E+01  0.000000000E+00  0.00000E+00  9.000E+00
       1    -1     0     0   501     0  0.000000000E+00  0.000000000E+00 -9.095596296E-01  9.095596296E-01  0.000000000E+00  0.00000E+00  9.000E+00
      23     2     1     2     0     0 -2.200668803E-01 -5.207298493E-03  9.520868631E-01  1.874078054E+00  1.599138084E+00  0.00000E+00  9.000E+00
      11     1     3     3     0     0  2.701499842E-01  3.668511439E-01 -2.528685350E-01  5.210600089E-01  5.110000000E-04  0.00000E+00  9.000E+00
     -11     1     3     3     0     0 -4.902168645E-01 -3.720584424E-01  1.204955398E+00  1.353018046E+00  5.110000000E-04  0.00000E+00  9.000E+00
       1     1     1     2   512     0  1.548864396E+00  1.933870282E+00  4.783865773E+00  5.387411895E+00  0.000000000E+00  0.00000E+00  9.000E+00
      21     1     1     2   502   512 -1.328797516E+00 -1.928662983E+00  9.195479227E+00  9.489061174E+00  1.192092896E-07  0.00000E+00  9.000E+00
#rwgt            1          16   1114308.8316473132                3     7867125           0
<weights>
0.11145E+08
0.12331E+08
0.98596E+07
0.12852E+08
0.93265E+07
0.10629E+08
0.11670E+08
0.10964E+08
0.11347E+08
0.10831E+08
0.10783E+08
0.10953E+08
0.10993E+08
0.10835E+08
0.10801E+08
0.11249E+08
0.11211E+08
0.11579E+08
0.11390E+08
0.11361E+08
0.11569E+08
0.11527E+08
0.11536E+08
0.11412E+08
0.11325E+08
0.11415E+08
0.11100E+08
0.11444E+08
0.11390E+08
0.11513E+08
0.11536E+08
0.11167E+08
0.11242E+08
0.11228E+08
0.11088E+08
0.10999E+08
0.11327E+08
0.11193E+08
0.11023E+08
0.11161E+08
0.11129E+08
0.11226E+08
0.11060E+08
0.11520E+08
0.10803E+08
</weights>
</event>
<event>
      6  10001 -1.11453E+07  8.94427E-01 -1.00000E+00  5.56551E-01
       2    -1     0     0   501     0  0.000000000E+00  0.000000000E+00  1.547556245E+02  1.547556245E+02  0.000000000E+00  0.00000E+00  9.000E+00
      21    -1     0     0   502   501  0.000000000E+00  0.000000000E+00 -1.332816456E-02  1.332816456E-02  0.000000000E+00  0.00000E+00  9.000E+00
      23     2     1     2     0     0  6.478689979E-01  6.352533931E-02  9.480003483E+01  9.482315645E+01  1.990131954E+00  0.00000E+00  9.000E+00
      11     1     3     3     0     0  1.069931353E+00  6.530715028E-01  4.368721724E+01  4.370519656E+01  5.110000000E-04  0.00000E+00  9.000E+00
     -11     1     3     3     0     0 -4.220623547E-01 -5.895461634E-01  5.111281758E+01  5.111795989E+01  5.110000000E-04  0.00000E+00  9.000E+00
       2     1     1     2   502     0 -6.478689979E-01 -6.352533931E-02  5.994226153E+01  5.994579624E+01  0.000000000E+00  0.00000E+00  9.000E+00
#rwgt            1          24  -6797603.3808569005                3     7881276           0
<weights>
-.11145E+08
-.12365E+08
-.97339E+07
-.15037E+08
-.77997E+07
-.91644E+07
-.13909E+08
-.11170E+08
-.11123E+08
-.10822E+08
-.10811E+08
-.10962E+08
-.11005E+08
-.10839E+08
-.10822E+08
-.11226E+08
-.11212E+08
-.11464E+08
-.11508E+08
-.11495E+08
-.11440E+08
-.11504E+08
-.11523E+08
-.11418E+08
-.11327E+08
-.11286E+08
-.11368E+08
-.11437E+08
-.11374E+08
-.11482E+08
-.11516E+08
-.11184E+08
-.11217E+08
-.11138E+08
-.11178E+08
-.11207E+08
-.11103E+08
-.11135E+08
-.11081E+08
-.11167E+08
-.11127E+08
-.11186E+08
-.11103E+08
-.11508E+08
-.10812E+08
</weights>
</event>
<event>
      6  10001  1.11453E+07  8.94427E-01 -1.00000E+00  5.88338E-01
       5    -1     0     0   501     0  0.000000000E+00  0.000000000E+00  6.844199832E-02  6.844199832E-02  0.000000000E+00  0.00000E+00  9.000E+00
      21    -1     0     0   502   501  0.000000000E+00  0.000000000E+00 -3.028832013E+01  3.028832013E+01  0.000000000E+00  0.00000E+00  9.000E+00
      23     2     1     2     0     0  2.580936418E-01 -1.975161404E-01 -6.248415699E+00  6.383096657E+00  1.263170311E+00  0.00000E+00  9.000E+00
      11     1     3     3     0     0  4.391959539E-01  2.786782097E-01 -1.185229865E+00  1.294343357E+00  5.110000000E-04  0.00000E+00  9.000E+00
     -11     1     3     3     0     0 -1.811023120E-01 -4.761943500E-01 -5.063185833E+00  5.088753300E+00  5.110000000E-04  0.00000E+00  9.000E+00
       5     1     1     2   502     0 -2.580936418E-01  1.975161404E-01 -2.397146244E+01  2.397366548E+01  0.000000000E+00  0.00000E+00  9.000E+00
#rwgt            1          30   101318.41292712856                3     7887755           0
<weights>
0.11145E+08
0.18034E+08
0.40162E+07
0.14266E+08
0.75334E+07
0.14055E+08
0.64111E+07
0.11472E+08
0.10815E+08
0.99815E+07
0.10180E+08
0.10570E+08
0.10663E+08
0.10088E+08
0.10149E+08
0.11370E+08
0.11383E+08
0.12098E+08
0.12316E+08
0.12307E+08
0.12025E+08
0.12166E+08
0.12458E+08
0.11484E+08
0.12182E+08
0.11957E+08
0.10826E+08
0.12034E+08
0.11667E+08
0.12012E+08
0.12235E+08
0.11128E+08
0.11488E+08
0.11196E+08
0.11141E+08
0.11606E+08
0.10747E+08
0.10415E+08
0.11505E+08
0.11226E+08
0.11073E+08
0.11246E+08
0.11041E+08
0.12295E+08
0.10078E+08
</weights>
</event>
<event>
      6  10001 -1.11453E+07  8.94427E-01 -1.00000E+00  3.81614E-01
       2    -1     0     0   501     0  0.000000000E+00  0.000000000E+00  4.541449494E+02  4.541449494E+02  0.000000000E+00  0.00000E+00  9.000E+00
      21    -1     0     0   502   501  0.000000000E+00  0.000000000E+00 -8.244310231E-03  8.244310231E-03  0.000000000E+00  0.00000E+00  9.000E+00
      23     2     1     2     0     0  6.708644157E-01  8.481793847E-01  3.864000149E+02  3.864078716E+02  2.214106443E+00  0.00000E+00  9.000E+00
      11     1     3     3     0     0 -6.533762883E-01  1.299538208E-01  2.207909863E+02  2.207919913E+02  5.110000000E-04  0.00000E+00  9.000E+00
     -11     1     3     3     0     0  1.324240704E+00  7.182255639E-01  1.656090286E+02  1.656158803E+02  5.110000000E-04  0.00000E+00  9.000E+00
       2     1     1     2   502     0 -6.708644157E-01 -8.481793847E-01  6.773669021E+01  6.774532211E+01  0.000000000E+00  0.00000E+00  9.000E+00
#rwgt            1          24  -11898486.459643751                3     7888849           0
<weights>
-.11145E+08
-.11984E+08
-.10087E+08
-.14574E+08
-.80828E+07
-.91652E+07
-.13909E+08
-.11171E+08
-.11120E+08
-.10824E+08
-.10814E+08
-.10962E+08
-.11007E+08
-.10842E+08
-.10825E+08
-.11226E+08
-.11211E+08
-.11461E+08
-.11503E+08
-.11491E+08
-.11438E+08
-.11500E+08
-.11520E+08
-.11411E+08
-.11328E+08
-.11286E+08
-.11353E+08
-.11434E+08
-.11371E+08
-.11478E+08
-.11513E+08
-.11183E+08
-.11217E+08
-.11138E+08
-.11177E+08
-.11208E+08
-.11101E+08
-.11131E+08
-.11085E+08
-.11166E+08
-.11128E+08
-.11185E+08
-.11104E+08
-.11505E+08
-.10815E+08
</weights>
</event>
<event>
      7  10001  1.11453E+07  1.82845E+00 -1.00000E+00  3.71449E-01
       2    -1     0     0   501     0  0.000000000E+00  0.000000000E+00  1.859954664E+00  1.859954664E+00  0.000000000E+00  0.00000E+00  9.000E+00
       1    -1     0     0   502     0  0.000000000E+00  0.000000000E+00 -1.114061717E+02  1.114061717E+02  0.000000000E+00  0.00000E+00  9.000E+00
      23     2     1     2     0     0 -1.002357858E+00  8.294460028E-01  1.012811024E+00  2.515196461E+00  1.899401253E+00  0.00000E+00  9.000E+00
      11     1     3     3     0     0 -1.345850491E+00  2.605144980E-01  8.438993950E-02  1.373427563E+00  5.110000000E-04  0.00000E+00  9.000E+00
     -11     1     3     3     0     0  3.434926326E-01  5.689315048E-01  9.284210843E-01  1.141768898E+00  5.110000000E-04  0.00000E+00  9.000E+00
       2     1     1     2   502     0  8.675916724E-01  9.940330296E-01 -4.854961912E+00  5.031050799E+00  0.000000000E+00  0.00000E+00  9.000E+00
       1     1     1     2   501     0  1.347661857E-01 -1.823479032E+00 -1.057040662E+02  1.057198791E+02  0.000000000E+00  0.00000E+00  9.000E+00
#rwgt            1          24   1508946.5001570012                3     7889538           0
<weights>
0.11145E+08
0.12888E+08
0.93013E+07
0.12380E+08
0.96214E+07
0.11404E+08
0.10481E+08
0.11223E+08
0.11062E+08
0.10680E+08
0.10660E+08
0.10887E+08
0.10940E+08
0.10691E+08
0.10672E+08
0.11258E+08
0.11267E+08
0.11627E+08
0.11652E+08
0.11650E+08
0.11588E+08
0.11672E+08
0.11713E+08
0.11432E+08
0.11476E+08
0.11430E+08
0.11101E+08
0.11601E+08
0.11455E+08
0.11644E+08
0.11691E+08
0.11208E+08
0.11244E+08
0.11126E+08
0.11199E+08
0.11272E+08
0.11042E+08
0.11146E+08
0.10993E+08
0.11201E+08
0.11098E+08
0.11195E+08
0.11094E+08
0.11675E+08
0.10662E+08
</weights>
</event>
<event>
      7  10001  1.11453E+07  2.74553E+01 -1.00000E+00  1.55661E-01
      21    -1     0     0   502   501  0.000000000E+00  0.000000000E+00  8.009769977E+01  8.009769977E+01  0.000000000E+00  0.00000E+00  9.000E+00
      -2    -1     0     0     0   502  0.000000000E+00  0.000000000E+00 -5.324690647E+00  5.324690647E+00  0.000000000E+00  0.00000E+00  9.000E+00
      23     2     1     2     0     0  7.780919343E-01 -1.471261110E+00 -4.388832779E+00  5.888424966E+00  3.555511089E+00  0.00000E+00  9.000E+00
      11     1     3     3     0     0  2.538424617E-01  1.036464745E+00 -3.836817013E-01  1.133978427E+00  5.110000000E-04  0.00000E+00  9.000E+00
     -11     1     3     3     0     0  5.242494726E-01 -2.507725855E+00 -4.005151078E+00  4.754446539E+00  5.110000000E-04  0.00000E+00  9.000E+00
      -2     1     1     2     0   511 -8.866819425E-01  1.174075115E+00  2.727912842E+00  3.099381505E+00  0.000000000E+00  0.00000E+00  9.000E+00
      21     1     1     2   511   501  1.085900082E-01  2.971859949E-01  7.643392906E+01  7.643458394E+01  1.651812370E-06  0.00000E+00  9.000E+00
#rwgt            2         160   969271.68272494245                3     7960020           0
<weights>
0.11145E+08
0.99584E+07
0.12473E+08
0.12103E+08
0.99939E+07
0.91702E+07
0.13910E+08
0.11142E+08
0.11145E+08
0.10864E+08
0.10866E+08
0.10987E+08
0.11012E+08
0.10885E+08
0.10875E+08
0.11166E+08
0.11263E+08
0.11430E+08
0.11407E+08
0.11394E+08
0.11415E+08
0.11437E+08
0.11463E+08
0.11318E+08
0.11324E+08
0.11370E+08
0.11046E+08
0.11417E+08
0.11249E+08
0.11412E+08
0.11440E+08
0.11133E+08
0.11247E+08
0.11165E+08
0.11146E+08
0.11081E+08
0.11229E+08
0.11050E+08
0.11152E+08
0.11149E+08
0.11140E+08
0.11209E+08
0.11078E+08
0.11447E+08
0.10865E+08
</weights>
</event>
<event>
      7  10001  1.11453E+07  1.79063E+00 -1.00000E+00  3.75787E-01
      21    -1     0     0   502   501  0.000000000E+00  0.000000000E+00  6.309731023E-01  6.309731023E-01  0.000000000E+00  0.00000E+00  9.000E+00
      -4    -1     0     0     0   502  0.000000000E+00  0.000000000E+00 -5.921757314E+00  5.921757314E+00  0.000000000E+00  0.00000E+00  9.000E+00
      23     2     1     2     0     0 -1.481815330E-01  4.760518559E-01 -5.537499089E+00  5.702785467E+00  1.268575100E+00  0.00000E+00  9.000E+00
      11     1     3     3     0     0  5.723436760E-02  8.664161236E-01 -4.354361601E+00  4.440092103E+00  5.110000000E-04  0.00000E+00  9.000E+00
     -11     1     3     3     0     0 -2.054159006E-01 -3.903642677E-01 -1.183137488E+00  1.262693364E+00  5.110000000E-04  0.00000E+00  9.000E+00
      -4     1     1     2     0   512  8.607092497E-02 -1.803239759E-01 -2.179400250E-01  2.956734599E-01  0.000000000E+00  0.00000E+00  9.000E+00
      21     1     1     2   512   501  6.211060800E-02 -2.957278800E-01  4.646549020E-01  5.542714899E-01  1.053671213E-08  0.00000E+00  9.000E+00
#rwgt            2         154   904921.89211322716                3     7962171           0
<weights>
0.11145E+08
0.11822E+08
0.10152E+08
0.14368E+08
0.81341E+07
0.91702E+07
0.13910E+08
0.11220E+08
0.11068E+08
0.10820E+08
0.10835E+08
0.10944E+08
0.11039E+08
0.10846E+08
0.10843E+08
0.11222E+08
0.11207E+08
0.11451E+08
0.11463E+08
0.11461E+08
0.11427E+08
0.11471E+08
0.11511E+08
0.11289E+08
0.11399E+08
0.11371E+08
0.11054E+08
0.11434E+08
0.11311E+08
0.11437E+08
0.11485E+08
0.11165E+08
0.11226E+08
0.11138E+08
0.11172E+08
0.11275E+08
0.11033E+08
0.11028E+08
0.11160E+08
0.11152E+08
0.11141E+08
0.11165E+08
0.11126E+08
0.11490E+08
0.10825E+08
</weights>
</event>
<event>
      7  10001  1.11453E+07  4.77323E+00 -1.00000E+00  2.44452E-01
      21    -1     0     0   502   501  0.000000000E+00  0.000000000E+00  1.439160872E+00  1.439160872E+00  0.000000000E+00  0.00000E+00  9.000E+00
      -1    -1     0     0     0   502  0.000000000E+00  0.000000000E+00 -1.844561913E+01  1.844561913E+01  0.000000000E+00  0.00000E+00  9.000E+00
      23     2     1     2     0     0  6.997728516E-02  4.719603770E-01 -1.784009670E+01  1.789134915E+01  1.266365071E+00  0.00000E+00  9.000E+00
      11     1     3     3     0     0  5.634100132E-01  4.749159659E-02 -4.499783103E+00  4.535166428E+00  5.110000000E-04  0.00000E+00  9.000E+00
     -11     1     3     3     0     0 -4.934327281E-01  4.244687804E-01 -1.334031360E+01  1.335618272E+01  5.110000000E-04  0.00000E+00  9.000E+00
      -1     1     1     2     0   511  3.218267761E-01 -4.253318313E-01 -4.201806595E-01  6.789929507E-01  0.000000000E+00  0.00000E+00  9.000E+00
      21     1     1     2   511   501 -3.918040612E-01 -4.662854567E-02  1.253819108E+00  1.314437902E+00  3.039252468E-07  0.00000E+00  9.000E+00
#rwgt            2         163   299626.41183346667                3     7965272           0
<weights>
0.11145E+08
0.11002E+08
0.11079E+08
0.13371E+08
0.88774E+07
0.91702E+07
0.13910E+08
0.11203E+08
0.11085E+08
0.10910E+08
0.10953E+08
0.11009E+08
0.11038E+08
0.10948E+08
0.10955E+08
0.11125E+08
0.11257E+08
0.11349E+08
0.11318E+08
0.11299E+08
0.11347E+08
0.11334E+08
0.11380E+08
0.11249E+08
0.11300E+08
0.11351E+08
0.11033E+08
0.11329E+08
0.11155E+08
0.11299E+08
0.11340E+08
0.11096E+08
0.11255E+08
0.11213E+08
0.11089E+08
0.11055E+08
0.11244E+08
0.10938E+08
0.11293E+08
0.11125E+08
0.11157E+08
0.11229E+08
0.11057E+08
0.11364E+08
0.10937E+08
</weights>
</event>
<event>
      6  10001 -1.11453E+07  8.94427E-01 -1.00000E+00  4.01946E-01
      21    -1     0     0   502   501  0.000000000E+00  0.000000000E+00  1.393727726E-02  1.393727726E-02  0.000000000E+00  0.00000E+00  9.000E+00
      -2    -1     0     0     0   502  0.000000000E+00  0.000000000E+00 -1.099072557E+02  1.099072557E+02  0.000000000E+00  0.00000E+00  9.000E+00
      23     2     1     2     0     0  6.671331349E-01 -4.332332519E-02 -5.428245346E+01  5.430630967E+01  1.464094483E+00  0.00000E+00  9.000E+00
      11     1     3     3     0     0 -2.719916462E-01  4.346780094E-01 -1.239183086E+01  1.240243511E+01  5.110000000E-04  0.00000E+00  9.000E+00
     -11     1     3     3     0     0  9.391247811E-01 -4.780013346E-01 -4.189062260E+01  4.190387456E+01  5.110000000E-04  0.00000E+00  9.000E+00
      -2     1     1     2     0   501 -6.671331349E-01  4.332332519E-02 -5.561086493E+01  5.561488328E+01  0.000000000E+00  0.00000E+00  9.000E+00
#rwgt            1          14  -1346072.2651846795                3     7965884           0
<weights>
-.11145E+08
-.12156E+08
-.99766E+07
-.14774E+08
-.79938E+07
-.91702E+07
-.13910E+08
-.11159E+08
-.11130E+08
-.11182E+08
-.11213E+08
-.11100E+08
-.11178E+08
-.11224E+08
-.11220E+08
-.11054E+08
-.11189E+08
-.11119E+08
-.10972E+08
-.10946E+08
-.11139E+08
-.11055E+08
-.11036E+08
-.11141E+08
-.11047E+08
-.11103E+08
-.11132E+08
-.11068E+08
-.10985E+08
-.11047E+08
-.11060E+08
-.11142E+08
-.11118E+08
-.11290E+08
-.11001E+08
-.11069E+08
-.11199E+08
-.11086E+08
-.11234E+08
-.11096E+08
-.11176E+08
-.11276E+08
-.11005E+08
-.11065E+08
-.11209E+08
</weights>
</event>
<event>
      6  10001 -1.11453E+07  8.94427E-01 -1.00000E+00  2.42838E-01
       2    -1     0     0   501     0  0.000000000E+00  0.000000000E+00  1.104369123E+03  1.104369123E+03  0.000000000E+00  0.00000E+00  9.000E+00
      21    -1     0     0   502   501  0.000000000E+00  0.000000000E+00 -1.197071363E-02  1.197071363E-02  0.000000000E+00  0.00000E+00  9.000E+00
      23     2     1     2     0     0 -1.304901349E+00 -2.172803805E+00  9.303318667E+02  9.303373525E+02  1.945084275E+00  0.00000E+00  9.000E+00
      11     1     3     3     0     0  2.966624835E-01 -5.017418983E-01  4.011851795E+02  4.011856029E+02  5.110000000E-04  0.00000E+00  9.000E+00
     -11     1     3     3     0     0 -1.601563833E+00 -1.671061907E+00  5.291466873E+02  5.291517496E+02  5.110000000E-04  0.00000E+00  9.000E+00
       2     1     1     2   502     0  1.304901349E+00  2.172803805E+00  1.740252857E+02  1.740437413E+02  0.000000000E+00  0.00000E+00  9.000E+00
#rwgt            1          24  -11781541.570607055                3     7967013           0
<weights>
-.11145E+08
-.11551E+08
-.10459E+08
-.14044E+08
-.83805E+07
-.91672E+07
-.13909E+08
-.11175E+08
-.11116E+08
-.10827E+08
-.10820E+08
-.10963E+08
-.11010E+08
-.10846E+08
-.10830E+08
-.11226E+08
-.11207E+08
-.11456E+08
-.11495E+08
-.11484E+08
-.11433E+08
-.11494E+08
-.11514E+08
-.11399E+08
-.11329E+08
-.11286E+08
-.11325E+08
-.11428E+08
-.11366E+08
-.11471E+08
-.11506E+08
-.11182E+08
-.11217E+08
-.11138E+08
-.11176E+08
-.11211E+08
-.11098E+08
-.11124E+08
-.11092E+08
-.11164E+08
-.11129E+08
-.11184E+08
-.11105E+08
-.11499E+08
-.10819E+08
</weights>
</event>
<event>
      6  10001  1.11453E+07  8.94427E-01 -1.00000E+00  5.88414E-01
       4    -1     0     0   501     0  0.000000000E+00  0.000000000E+00  5.962788550E-02  5.962788550E-02  0.000000000E+00  0.00000E+00  9.000E+00
      21    -1     0     0   502   501  0.000000000E+00  0.000000000E+00 -2.404531204E+01  2.404531204E+01  0.000000000E+00  0.00000E+00  9.000E+00
      23     2     1     2     0     0 -1.161352567E-01 -6.600277477E-01 -8.549108002E+00  8.653823223E+00  1.162877779E+00  0.00000E+00  9.000E+00
      11     1     3     3     0     0 -3.027417331E-01 -7.802175205E-02 -6.680256760E+00  6.687568362E+00  5.110000000E-04  0.00000E+00  9.000E+00
     -11     1     3     3     0     0  1.866064763E-01 -5.820059957E-01 -1.868851241E+00  1.966254861E+00  5.110000000E-04  0.00000E+00  9.000E+00
       4     1     1     2   502     0  1.161352567E-01  6.600277477E-01 -1.543657615E+01  1.545111670E+01  0.000000000E+00  0.00000E+00  9.000E+00
#rwgt            1          28   694848.92563373211                3     7967320           0
<weights>
0.11145E+08
0.13906E+08
0.83644E+07
0.12232E+08
0.95423E+07
0.12233E+08
0.92084E+07
0.11321E+08
0.10966E+08
0.10483E+08
0.10570E+08
0.10796E+08
0.10887E+08
0.10539E+08
0.10562E+08
0.11276E+08
0.11285E+08
0.11713E+08
0.11813E+08
0.11810E+08
0.11668E+08
0.11753E+08
0.11899E+08
0.11366E+08
0.11718E+08
0.11612E+08
0.10956E+08
0.11681E+08
0.11455E+08
0.11671E+08
0.11788E+08
0.11153E+08
0.11329E+08
0.11162E+08
0.11159E+08
0.11405E+08
0.10920E+08
0.10780E+08
0.11279E+08
0.11184E+08
0.11112E+08
0.11195E+08
0.11094E+08
0.11815E+08
0.10524E+08
</weights>
</event>
<event>
      6  10001 -1.11453E+07  8.94427E-01 -1.00000E+00  1.39770E-01
       4    -1     0     0   501     0  0.000000000E+00  0.000000000E+00  2.382175898E-02  2.382175898E-02  0.000000000E+00  0.00000E+00  9.000E+00
      21    -1     0     0   502   501  0.000000000E+00  0.000000000E+00 -3.768656363E+01  3.768656363E+01  0.000000000E+00  0.00000E+00  9.000E+00
      23     2     1     2     0     0 -5.936766077E-02  2.924200069E-01 -3.134685390E+01  3.138745294E+01  1.567774926E+00  0.00000E+00  9.000E+00
      11     1     3     3     0     0  3.087894196E-01 -5.600479268E-01 -1.575320859E+01  1.576618488E+01  5.110000000E-04  0.00000E+00  9.000E+00
     -11     1     3     3     0     0 -3.681570804E-01  8.524679337E-01 -1.559364531E+01  1.562126805E+01  5.110000000E-04  0.00000E+00  9.000E+00
       4     1     1     2   502     0  5.936766077E-02 -2.924200069E-01 -6.315887965E+00  6.322932450E+00  0.000000000E+00  0.00000E+00  9.000E+00
#rwgt            1          28  -982292.25394795300                3     8005454           0
<weights>
-.11145E+08
-.12603E+08
-.94659E+07
-.15318E+08
-.75846E+07
-.91702E+07
-.13910E+08
-.11216E+08
-.11075E+08
-.10968E+08
-.11032E+08
-.11010E+08
-.11139E+08
-.11019E+08
-.11034E+08
-.11190E+08
-.11114E+08
-.11249E+08
-.11248E+08
-.11243E+08
-.11244E+08
-.11245E+08
-.11279E+08
-.11148E+08
-.11292E+08
-.11252E+08
-.11070E+08
-.11223E+08
-.11169E+08
-.11200E+08
-.11254E+08
-.11109E+08
-.11216E+08
-.11157E+08
-.11135E+08
-.11266E+08
-.11036E+08
-.10884E+08
-.11395E+08
-.11094E+08
-.11192E+08
-.11141E+08
-.11150E+08
-.11285E+08
-.11005E+08
</weights>
</event>
<event>
      6  10001 -1.11453E+07  8.94427E-01 -1.00000E+00  6.61391E-01
       2    -1     0     0   501     0  0.000000000E+00  0.000000000E+00  4.191188298E+02  4.191188298E+02  0.000000000E+00  0.00000E+00  9.000E+00
      21    -1     0     0   502   501  0.000000000E+00  0.000000000E+00 -3.445941909E-03  3.445941909E-03  0.000000000E+00  0.00000E+00  9.000E+00
      23     2     1     2     0     0 -1.769722308E-01 -4.890167664E-01  3.477527716E+02  3.477577686E+02  1.790246903E+00  0.00000E+00  9.000E+00
      11     1     3     3     0     0  3.750035526E-01 -1.588676983E-01  1.898513623E+01  1.898950406E+01  5.110000000E-04  0.00000E+00  9.000E+00
     -11     1     3     3     0     0 -5.519757835E-01 -3.301490681E-01  3.287676354E+02  3.287682645E+02  5.110000000E-04  0.00000E+00  9.000E+00
       2     1     1     2   502     0  1.769722308E-01  4.890167664E-01  7.136261224E+01  7.136450716E+01  0.000000000E+00  0.00000E+00  9.000E+00
#rwgt            1          24  -15021296.066007519                3     8010847           0
<weights>
-.11145E+08
-.12270E+08
-.98001E+07
-.14930E+08
-.78529E+07
-.91597E+07
-.13909E+08
-.11177E+08
-.11114E+08
-.10834E+08
-.10829E+08
-.10966E+08
-.11015E+08
-.10853E+08
-.10839E+08
-.11224E+08
-.11202E+08
-.11447E+08
-.11484E+08
-.11473E+08
-.11425E+08
-.11483E+08
-.11504E+08
-.11386E+08
-.11328E+08
-.11284E+08
-.11312E+08
-.11419E+08
-.11357E+08
-.11459E+08
-.11495E+08
-.11179E+08
-.11216E+08
-.11139E+08
-.11175E+08
-.11213E+08
-.11095E+08
-.11113E+08
-.11103E+08
-.11161E+08
-.11132E+08
-.11182E+08
-.11107E+08
-.11490E+08
-.10828E+08
</weights>
</event>
<event>
      6  10001 -1.11453E+07  8.94427E-01 -1.00000E+00  5.52255E-01
      21    -1     0     0   502   501  0.000000000E+00  0.000000000E+00  1.608371156E-02  1.608371156E-02  0.000000000E+00  0.00000E+00  9.000E+00
      -4    -1     0     0     0   502  0.000000000E+00  0.000000000E+00 -1.140775302E+02  1.140775302E+02  0.000000000E+00  0.00000E+00  9.000E+00
      23     2     1     2     0     0  2.660490476E-01 -1.212793126E-01 -1.114007320E+02  1.114168823E+02  1.874318718E+00  0.00000E+00  9.000E+00
      11     1     3     3     0     0 -3.630360925E-01 -3.356043586E-01 -8.722829966E+00  8.736829423E+00  5.110000000E-04  0.00000E+00  9.000E+00
     -11     1     3     3     0     0  6.290851401E-01  2.143250460E-01 -1.026779021E+02  1.026800529E+02  5.110000000E-04  0.00000E+00  9.000E+00
      -4     1     1     2     0   501 -2.660490476E-01  1.212793126E-01 -2.660714437E+00  2.676731604E+00  0.000000000E+00  0.00000E+00  9.000E+00
#rwgt            1          12  -1522296.0938407907                3     8012028           0
<weights>
-.11145E+08
-.12365E+08
-.97242E+07
-.15028E+08
-.77916E+07
-.91702E+07
-.13910E+08
-.11125E+08
-.11163E+08
-.11275E+08
-.11265E+08
-.11061E+08
-.11384E+08
-.11325E+08
-.11305E+08
-.11132E+08
-.11030E+08
-.10990E+08
-.10895E+08
-.10891E+08
-.11007E+08
-.10969E+08
-.10884E+08
-.11104E+08
-.10935E+08
-.10999E+08
-.11190E+08
-.11003E+08
-.10995E+08
-.10955E+08
-.10952E+08
-.11120E+08
-.11113E+08
-.11137E+08
-.11144E+08
-.11187E+08
-.11101E+08
-.10999E+08
-.11363E+08
-.10983E+08
-.11297E+08
-.11066E+08
-.11230E+08
-.10978E+08
-.11281E+08
</weights>
</event>
<event>
      6  10001 -1.11453E+07  8.94427E-01 -1.00000E+00  2.81238E-01
      21    -1     0     0   502   501  0.000000000E+00  0.000000000E+00  7.574962547E-03  7.574962547E-03  0.000000000E+00  0.00000E+00  9.000E+00
       2    -1     0     0   501     0  0.000000000E+00  0.000000000E+00 -5.156398358E+02  5.156398358E+02  0.000000000E+00  0.00000E+00  9.000E+00
      23     2     1     2     0     0 -2.372451662E-01  1.222913865E-01 -5.131104975E+02  5.131115617E+02  1.010347050E+00  0.00000E+00  9.000E+00
      11     1     3     3     0     0 -3.312195532E-01  3.375013997E-01 -4.799369585E+02  4.799371915E+02  5.110000000E-04  0.00000E+00  9.000E+00
     -11     1     3     3     0     0  9.397438703E-02 -2.152100133E-01 -3.317353899E+01  3.317437017E+01  5.110000000E-04  0.00000E+00  9.000E+00
       2     1     1     2   502     0  2.372451662E-01 -1.222913865E-01 -2.521763280E+00  2.535849068E+00  0.000000000E+00  0.00000E+00  9.000E+00
#rwgt            1          17  -45549142.684613541                3     8015702           0
<weights>
-.11145E+08
-.14021E+08
-.72651E+07
-.17041E+08
-.58212E+07
-.91702E+07
-.13910E+08
-.11131E+08
-.11159E+08
-.11164E+08
-.11149E+08
-.10972E+08
-.11341E+08
-.11156E+08
-.11151E+08
-.11247E+08
-.10988E+08
-.11496E+08
-.10654E+08
-.10583E+08
-.11538E+08
-.11110E+08
-.11172E+08
-.11024E+08
-.11230E+08
-.11382E+08
-.10998E+08
-.10712E+08
-.11628E+08
-.11063E+08
-.11194E+08
-.11035E+08
-.11254E+08
-.11557E+08
-.10644E+08
-.11089E+08
-.11196E+08
-.11142E+08
-.11156E+08
-.11266E+08
-.11037E+08
-.11131E+08
-.11160E+08
-.11134E+08
-.11157E+08
</weights>
</event>
<event>
      7  10001  1.11453E+07  8.94427E-01 -1.00000E+00  6.07649E-01
       1    -1     0     0   502     0  0.000000000E+00  0.000000000E+00  3.201988366E-01  3.201988366E-01  0.000000000E+00  0.00000E+00  9.000E+00
       3    -1     0     0   501     0  0.000000000E+00  0.000000000E+00 -4.700485742E+01  4.700485742E+01  0.000000000E+00  0.00000E+00  9.000E+00
      23     2     1     2     0     0 -3.099497214E-01 -8.049579960E-02 -3.306573072E+00  3.926234698E+00  2.092688467E+00  0.00000E+00  9.000E+00
      11     1     3     3     0     0 -8.454064824E-01 -1.883163501E-01 -3.743351821E-01  9.435582959E-01  5.110000000E-04  0.00000E+00  9.000E+00
     -11     1     3     3     0     0  5.354567610E-01  1.078205505E-01 -2.932237890E+00  2.982676402E+00  5.110000000E-04  0.00000E+00  9.000E+00
       3     1     1     2   502     0  4.415904050E-01  3.213062157E-01 -4.118634172E+01  4.118996218E+01  0.000000000E+00  0.00000E+00  9.000E+00
       1     1     1     2   501     0 -1.316406836E-01 -2.408104161E-01 -2.191743790E+00  2.208859381E+00  0.000000000E+00  0.00000E+00  9.000E+00
#rwgt            2         225   19424.976359374679                3     8017179           0
<weights>
0.11145E+08
0.11035E+08
0.11121E+08
0.13412E+08
0.89111E+07
0.91702E+07
0.13910E+08
0.11181E+08
0.11108E+08
0.10970E+08
0.11122E+08
0.11267E+08
0.10868E+08
0.11067E+08
0.11069E+08
0.12012E+08
0.99556E+07
0.11377E+08
0.10928E+08
0.10976E+08
0.11296E+08
0.11166E+08
0.11265E+08
0.10793E+08
0.11392E+08
0.10037E+08
0.11449E+08
0.10453E+08
0.12046E+08
0.11086E+08
0.11262E+08
0.11192E+08
0.11117E+08
0.11218E+08
0.11080E+08
0.11255E+08
0.11045E+08
0.10908E+08
0.11393E+08
0.11108E+08
0.11171E+08
0.11230E+08
0.11054E+08
0.11236E+08
0.11049E+08
</weights>
</event>
<event>
      7  10001  1.11453E+07  2.07218E+00 -1.00000E+00  3.47506E-01
      -2    -1     0     0     0   502  0.000000000E+00  0.000000000E+00  2.806914959E+01  2.806914959E+01  0.000000000E+00  0.00000E+00  9.000E+00
      21    -1     0     0   502   511  0.000000000E+00  0.000000000E+00 -1.193949187E+01  1.193949187E+01  0.000000000E+00  0.00000E+00  9.000E+00
      23     2     1     2     0     0 -1.477111813E+00 -5.287662397E-01  2.367298652E+01  2.385596461E+01  2.497058972E+00  0.00000E+00  9.000E+00
      11     1     3     3     0     0 -1.541056943E+00  6.317038675E-01  1.043739954E+01  1.056944728E+01  5.110000000E-04  0.00000E+00  9.000E+00
     -11     1     3     3     0     0  6.394513031E-02 -1.160470107E+00  1.323558698E+01  1.328651733E+01  5.110000000E-04  0.00000E+00  9.000E+00
      -2     1     1     2     0   501  1.452448275E-01 -1.058707675E+00  4.145792988E+00  4.281303248E+00  0.000000000E+00  0.00000E+00  9.000E+00
      21     1     1     2   501   511  1.331866985E+00  1.587473914E+00 -1.168912179E+01  1.187137361E+01  0.000000000E+00  0.00000E+00  9.000E+00
#rwgt            1           7   840122.15399765212                3     8018380           0
<weights>
0.14939E+08
0.19451E+08
0.10425E+08
0.17447E+08
0.12117E+08
0.16351E+08
0.12413E+08
0.14944E+08
0.14936E+08
0.14417E+08
0.14360E+08
0.14657E+08
0.14679E+08
0.14425E+08
0.14380E+08
0.15063E+08
0.15093E+08
0.15493E+08
0.15573E+08
0.15551E+08
0.15452E+08
0.15574E+08
0.15580E+08
0.15469E+08
0.15201E+08
0.15165E+08
0.15400E+08
0.15464E+08
0.15358E+08
0.15558E+08
0.15590E+08
0.15033E+08
0.15040E+08
0.14918E+08
0.15008E+08
0.14995E+08
0.14915E+08
0.15081E+08
0.14695E+08
0.15009E+08
0.14879E+08
0.15014E+08
0.14860E+08
0.15557E+08
0.14376E+08
</weights>
</event>
<event>
      7  10001  1.11453E+07  1.51313E+00 -1.00000E+00  4.14995E-01
       2    -1     0     0   501     0  0.000000000E+00  0.000000000E+00  4.394272569E+00  4.394272569E+00  0.000000000E+00  0.00000E+00  9.000E+00
       2    -1     0     0   502     0  0.000000000E+00  0.000000000E+00 -2.785564672E+02  2.785564672E+02  0.000000000E+00  0.00000E+00  9.000E+00
      23     2     1     2     0     0  1.275020629E+00  7.860334885E-01  3.887588125E+00  4.327486720E+00  1.170586876E+00  0.00000E+00  9.000E+00
      11     1     3     3     0     0  9.055010990E-01  1.639635241E-01  1.036653223E+00  1.386169702E+00  5.110000000E-04  0.00000E+00  9.000E+00
     -11     1     3     3     0     0  3.695195297E-01  6.220699644E-01  2.850934902E+00  2.941317018E+00  5.110000000E-04  0.00000E+00  9.000E+00
       2     1     1     2   502     0 -2.419965386E+00  2.032406254E-01 -4.895189086E+00  5.464468447E+00  0.000000000E+00  0.00000E+00  9.000E+00
       2     1     1     2   501     0  1.144944757E+00 -9.892741140E-01 -2.731545937E+02  2.731587846E+02  0.000000000E+00  0.00000E+00  9.000E+00
#rwgt            1          24   3016609.8187989634                3     8037268           0
<weights>
0.11145E+08
0.11917E+08
0.10221E+08
0.12770E+08
0.93726E+07
0.10360E+08
0.12083E+08
0.11213E+08
0.11074E+08
0.10808E+08
0.10814E+08
0.10948E+08
0.11015E+08
0.10833E+08
0.10822E+08
0.11233E+08
0.11203E+08
0.11472E+08
0.11480E+08
0.11478E+08
0.11446E+08
0.11499E+08
0.11528E+08
0.11324E+08
0.11385E+08
0.11335E+08
0.11103E+08
0.11443E+08
0.11348E+08
0.11468E+08
0.11512E+08
0.11177E+08
0.11222E+08
0.11137E+08
0.11175E+08
0.11252E+08
0.11055E+08
0.11073E+08
0.11123E+08
0.11162E+08
0.11132E+08
0.11177E+08
0.11112E+08
0.11511E+08
0.10808E+08
</weights>
</event>
<event>
      7  10001  1.11453E+07  9.97652E-01 -1.00000E+00  5.63489E-01
      -4    -1     0     0     0   502  0.000000000E+00  0.000000000E+00  1.419052149E+00  1.419052149E+00  0.000000000E+00  0.00000E+00  9.000E+00
      21    -1     0     0   502   501  0.000000000E+00  0.000000000E+00 -7.621068815E+00  7.621068815E+00  0.000000000E+00  0.00000E+00  9.000E+00
      23     2     1     2     0     0  4.269409375E-01  2.150802036E-01 -2.041770360E-01  3.016443144E+00  2.971313332E+00  0.00000E+00  9.000E+00
      11     1     3     3     0     0 -5.418645928E-01 -9.333664305E-01 -8.571141056E-01  1.378199906E+00  5.110000000E-04  0.00000E+00  9.000E+00
     -11     1     3     3     0     0  9.688055303E-01  1.148446634E+00  6.529370696E-01  1.638243237E+00  5.110000000E-04  0.00000E+00  9.000E+00
      -4     1     1     2     0   511  3.206938844E-02  2.366002057E-02 -4.576742451E-01  4.594060915E-01  0.000000000E+00  0.00000E+00  9.000E+00
      21     1     1     2   511   501 -4.590103259E-01 -2.387402242E-01 -5.540165385E+00  5.564271728E+00  1.032382731E-07  0.00000E+00  9.000E+00
#rwgt            1           3   741444.61400454550                3     8163655           0
<weights>
0.11145E+08
0.17445E+08
0.48611E+07
0.12632E+08
0.92418E+07
0.14865E+08
0.51673E+07
0.11318E+08
0.10959E+08
0.10100E+08
0.10055E+08
0.10640E+08
0.10608E+08
0.10110E+08
0.10064E+08
0.11373E+08
0.11495E+08
0.12245E+08
0.12326E+08
0.12330E+08
0.12150E+08
0.12356E+08
0.12448E+08
0.11787E+08
0.11910E+08
0.11807E+08
0.11026E+08
0.12214E+08
0.11867E+08
0.12306E+08
0.12394E+08
0.11312E+08
0.11348E+08
0.11121E+08
0.11250E+08
0.11386E+08
0.10953E+08
0.11223E+08
0.10696E+08
0.11341E+08
0.10975E+08
0.11270E+08
0.11016E+08
0.12348E+08
0.10054E+08
</weights>
</event>
<event>
      6  10001 -1.11453E+07  8.94427E-01 -1.00000E+00  4.42694E-01
      21    -1     0     0   502   501  0.000000000E+00  0.000000000E+00  2.760228071E-03  2.760228071E-03  0.000000000E+00  0.00000E+00  9.000E+00
       2    -1     0     0   501     0  0.000000000E+00  0.000000000E+00 -4.433785876E+02  4.433785876E+02  0.000000000E+00  0.00000E+00  9.000E+00
      23     2     1     2     0     0 -6.664237719E-01 -1.008992533E-01 -3.721511220E+02  3.721534533E+02  1.131772004E+00  0.00000E+00  9.000E+00
      11     1     3     3     0     0 -7.341800940E-01 -4.883350862E-01 -2.094688051E+02  2.094706610E+02  5.110000000E-04  0.00000E+00  9.000E+00
     -11     1     3     3     0     0  6.775632218E-02  3.874358329E-01 -1.626823168E+02  1.626827923E+02  5.110000000E-04  0.00000E+00  9.000E+00
       2     1     1     2   502     0  6.664237719E-01  1.008992533E-01 -7.122470534E+01  7.122789448E+01  0.000000000E+00  0.00000E+00  9.000E+00
#rwgt            1          17  -30568598.672445226                3     8210911           0
<weights>
-.11145E+08
-.11844E+08
-.10389E+08
-.14395E+08
-.83239E+07
-.91702E+07
-.13910E+08
-.11129E+08
-.11161E+08
-.11166E+08
-.11152E+08
-.10995E+08
-.11317E+08
-.11158E+08
-.11154E+08
-.11298E+08
-.10914E+08
-.11453E+08
-.10703E+08
-.10641E+08
-.11489E+08
-.11107E+08
-.11170E+08
-.11056E+08
-.11193E+08
-.11322E+08
-.11033E+08
-.10772E+08
-.11548E+08
-.11070E+08
-.11185E+08
-.11022E+08
-.11265E+08
-.11489E+08
-.10720E+08
-.11101E+08
-.11185E+08
-.11150E+08
-.11146E+08
-.11246E+08
-.11054E+08
-.11136E+08
-.11154E+08
-.11131E+08
-.11160E+08
</weights>
</event>
<event>
      7  10001  1.11453E+07  5.18895E+00 -1.00000E+00  2.34229E-01
      21    -1     0     0   502   501  0.000000000E+00  0.000000000E+00  2.801959310E-02  2.801959310E-02  0.000000000E+00  0.00000E+00  9.000E+00
      -2    -1     0     0     0   502  0.000000000E+00  0.000000000E+00 -2.774119560E+02  2.774119560E+02  0.000000000E+00  0.00000E+00  9.000E+00
      23     2     1     2     0     0 -7.043368163E-01 -5.108968325E-02 -2.338739490E+02  2.338775515E+02  1.089212909E+00  0.00000E+00  9.000E+00
      11     1     3     3     0     0 -2.697656105E-01  3.681003200E-01 -3.904622608E+01  3.904889298E+01  5.110000000E-04  0.00000E+00  9.000E+00
     -11     1     3     3     0     0 -4.345712057E-01 -4.191900033E-01 -1.948277229E+02  1.948286585E+02  5.110000000E-04  0.00000E+00  9.000E+00
      -2     1     1     2     0   511  5.947747573E-02  9.164327920E-03 -3.955074393E+01  3.955078972E+01  0.000000000E+00  0.00000E+00  9.000E+00
      21     1     1     2   511   501  6.448593405E-01  4.192535533E-02 -3.959243470E+00  4.011634350E+00  2.950279396E-07  0.00000E+00  9.000E+00
#rwgt            2         160   1183997.8034012434                3     8211407           0
<weights>
0.11145E+08
0.10850E+08
0.11292E+08
0.13187E+08
0.90477E+07
0.91702E+07
0.13910E+08
0.10988E+08
0.11294E+08
0.11388E+08
0.11326E+08
0.11146E+08
0.11273E+08
0.11331E+08
0.11341E+08
0.11029E+08
0.11202E+08
0.11028E+08
0.10894E+08
0.10875E+08
0.11048E+08
0.10938E+08
0.10967E+08
0.11099E+08
0.10969E+08
0.10965E+08
0.11198E+08
0.10964E+08
0.10969E+08
0.10988E+08
0.10971E+08
0.11299E+08
0.10926E+08
0.11315E+08
0.10981E+08
0.11250E+08
0.11029E+08
0.11466E+08
0.10810E+08
0.11137E+08
0.11135E+08
0.11317E+08
0.10961E+08
0.10920E+08
0.11362E+08
</weights>
</event>
<event>
      6  10001 -1.11453E+07  8.94427E-01 -1.00000E+00  5.10469E-01
       4    -1     0     0   501     0  0.000000000E+00  0.000000000E+00  2.446977553E+02  2.446977553E+02  0.000000000E+00  0.00000E+00  9.000E+00
      21    -1     0     0   502   501  0.000000000E+00  0.000000000E+00 -4.139906205E-03  4.139906205E-03  0.000000000E+00  0.00000E+00  9.000E+00
      23     2     1     2     0     0 -5.562646183E-01  3.972691263E-01  1.549207193E+02  1.549263967E+02  1.136610351E+00  0.00000E+00  9.000E+00
      11     1     3     3     0     0 -4.780806966E-01  4.912150970E-02  1.418329968E+02  1.418338110E+02  5.110000000E-04  0.00000E+00  9.000E+00
     -11     1     3     3     0     0 -7.818392171E-02  3.481476166E-01  1.308772249E+01  1.309258568E+01  5.110000000E-04  0.00000E+00  9.000E+00
       4     1     1     2   502     0  5.562646183E-01 -3.972691263E-01  8.977289613E+01  8.977549851E+01  0.000000000E+00  0.00000E+00  9.000E+00
#rwgt            1          28  -300767.73989590828                3     8212798           0
<weights>
-.11145E+08
-.12344E+08
-.96970E+07
-.14991E+08
-.77692E+07
-.91786E+07
-.13911E+08
-.11169E+08
-.11123E+08
-.10821E+08
-.10810E+08
-.10961E+08
-.11004E+08
-.10839E+08
-.10821E+08
-.11226E+08
-.11213E+08
-.11464E+08
-.11509E+08
-.11496E+08
-.11441E+08
-.11505E+08
-.11524E+08
-.11420E+08
-.11327E+08
-.11287E+08
-.11374E+08
-.11438E+08
-.11375E+08
-.11483E+08
-.11517E+08
-.11184E+08
-.11217E+08
-.11138E+08
-.11178E+08
-.11206E+08
-.11104E+08
-.11136E+08
-.11080E+08
-.11167E+08
-.11127E+08
-.11186E+08
-.11103E+08
-.11509E+08
-.10811E+08
</weights>
</event>
<event>
      7  10001 -1.11453E+07  1.61234E+00 -1.00000E+00  3.99255E-01
      21    -1     0     0   502   511  0.000000000E+00  0.000000000E+00  1.604735842E+01  1.604735842E+01  0.000000000E+00  0.00000E+00  9.000E+00
      -4    -1     0     0     0   502  0.000000000E+00  0.000000000E+00 -2.451523790E+00  2.451523790E+00  0.000000000E+00  0.00000E+00  9.000E+00
      23     2     1     2     0     0 -1.318180423E-01  1.487822057E+00 -1.254685126E+00  2.358153055E+00  1.325013432E+00  0.00000E+00  9.000E+00
      11     1     3     3     0     0  1.510019184E-02  1.382427709E+00 -3.372236157E-01  1.423044067E+00  5.110000000E-04  0.00000E+00  9.000E+00
     -11     1     3     3     0     0 -1.469182342E-01  1.053943479E-01 -9.174615104E-01  9.351089884E-01  5.110000000E-04  0.00000E+00  9.000E+00
      -4     1     1     2     0   501 -2.901065236E-01  6.833816785E-02 -5.662377319E-01  6.398883256E-01  0.000000000E+00  0.00000E+00  9.000E+00
      21     1     1     2   501   511  4.219245660E-01 -1.556160225E+00  1.541675749E+01  1.550084083E+01  3.371747881E-07  0.00000E+00  9.000E+00
#rwgt            1          12  -299446.96042275574                3     8214397           0
<weights>
-.11145E+08
-.11869E+08
-.87069E+07
-.20346E+08
-.38495E+07
-.55315E+07
-.19496E+08
-.11211E+08
-.11077E+08
-.10923E+08
-.10963E+08
-.10998E+08
-.11093E+08
-.10959E+08
-.10967E+08
-.11207E+08
-.11139E+08
-.11319E+08
-.11328E+08
-.11324E+08
-.11306E+08
-.11324E+08
-.11366E+08
-.11204E+08
-.11319E+08
-.11263E+08
-.11087E+08
-.11286E+08
-.11235E+08
-.11286E+08
-.11337E+08
-.11134E+08
-.11213E+08
-.11149E+08
-.11149E+08
-.11250E+08
-.11052E+08
-.10949E+08
-.11274E+08
-.11119E+08
-.11169E+08
-.11157E+08
-.11133E+08
-.11355E+08
-.10946E+08
</weights>
</event>
<event>
      6  10001  1.11453E+07  8.94427E-01 -1.00000E+00  4.27661E-01
       4    -1     0     0   501     0  0.000000000E+00  0.000000000E+00  3.816881809E-02  3.816881809E-02  0.000000000E+00  0.00000E+00  9.000E+00
      21    -1     0     0   502   501  0.000000000E+00  0.000000000E+00 -2.297936589E+01  2.297936589E+01  0.000000000E+00  0.00000E+00  9.000E+00
      23     2     1     2     0     0  2.103119626E-01 -3.592768817E-01 -1.721314459E+01  1.727437389E+01  1.392241164E+00  0.00000E+00  9.000E+00
      11     1     3     3     0     0  4.882397920E-01  1.402333242E-01 -2.550706502E+00  2.600797455E+00  5.110000000E-04  0.00000E+00  9.000E+00
     -11     1     3     3     0     0 -2.779278294E-01 -4.995102059E-01 -1.466243809E+01  1.467357643E+01  5.110000000E-04  0.00000E+00  9.000E+00
       4     1     1     2   502     0 -2.103119626E-01  3.592768817E-01 -5.728052480E+00  5.743160821E+00  0.000000000E+00  0.00000E+00  9.000E+00
#rwgt            1          28   325031.94979541696                3     8221248           0
<weights>
0.11145E+08
0.15459E+08
0.70275E+07
0.11221E+08
0.10154E+08
0.14093E+08
0.63527E+07
0.11382E+08
0.10902E+08
0.10197E+08
0.10295E+08
0.10651E+08
0.10757E+08
0.10255E+08
0.10285E+08
0.11328E+08
0.11388E+08
0.11981E+08
0.12149E+08
0.12143E+08
0.11917E+08
0.12049E+08
0.12264E+08
0.11500E+08
0.11967E+08
0.11836E+08
0.10890E+08
0.11953E+08
0.11612E+08
0.11944E+08
0.12101E+08
0.11175E+08
0.11399E+08
0.11159E+08
0.11178E+08
0.11501E+08
0.10838E+08
0.10707E+08
0.11224E+08
0.11226E+08
0.11075E+08
0.11223E+08
0.11065E+08
0.12128E+08
0.10239E+08
</weights>
</event>
<event>
      6  10001 -1.11453E+07  8.94427E-01 -1.00000E+00  3.87214E-01
      21    -1     0     0   502   501  0.000000000E+00  0.000000000E+00  3.692095674E-03  3.692095674E-03  0.000000000E+00  0.00000E+00  9.000E+00
       1    -1     0     0   501     0  0.000000000E+00  0.000000000E+00 -4.453958554E+02  4.453958554E+02  0.000000000E+00  0.00000E+00  9.000E+00
      23     2     1     2     0     0 -4.177821988E-01  8.449314998E-01 -2.141376738E+02  2.141431371E+02  1.204723480E+00  0.00000E+00  9.000E+00
      11     1     3     3     0     0 -5.804663743E-02  1.021308872E+00 -1.833912040E+02  1.833940570E+02  5.110000000E-04  0.00000E+00  9.000E+00
     -11     1     3     3     0     0 -3.597355614E-01 -1.763773720E-01 -3.074646986E+01  3.074908011E+01  5.110000000E-04  0.00000E+00  9.000E+00
       1     1     1     2   502     0  4.177821988E-01 -8.449314998E-01 -2.312544895E+02  2.312564104E+02  0.000000000E+00  0.00000E+00  9.000E+00
#rwgt            1          16  -547113.67901393352                3     8251767           0
<weights>
-.11145E+08
-.11498E+08
-.10639E+08
-.13974E+08
-.85248E+07
-.91702E+07
-.13910E+08
-.11295E+08
-.11005E+08
-.11091E+08
-.11325E+08
-.11934E+08
-.10336E+08
-.11172E+08
-.11186E+08
-.10214E+08
-.12247E+08
-.10046E+08
-.12527E+08
-.12776E+08
-.98881E+07
-.11207E+08
-.10989E+08
-.11623E+08
-.10588E+08
-.10366E+08
-.11613E+08
-.12339E+08
-.97211E+07
-.11325E+08
-.10961E+08
-.10982E+08
-.11302E+08
-.10033E+08
-.12420E+08
-.11170E+08
-.11120E+08
-.11152E+08
-.11156E+08
-.11354E+08
-.10954E+08
-.11166E+08
-.11122E+08
-.11102E+08
-.11188E+08
</weights>
</event>
<event>
      7  10001 -1.11453E+07  1.21035E+00 -1.00000E+00  4.93868E-01
       2    -1     0     0   501     0  0.000000000E+00  0.000000000E+00  1.491191865E+01  1.491191865E+01  0.000000000E+00  0.00000E+00  9.000E+00
      21    -1     0     0   502   511  0.000000000E+00  0.000000000E+00 -5.504835423E+01  5.504835423E+01  0.000000000E+00  0.00000E+00  9.000E+00
      23     2     1     2     0     0 -7.480014247E-01  5.233683523E-01  1.382465330E+01  1.423709040E+01  3.277237231E+00  0.00000E+00  9.000E+00
      11     1     3     3     0     0 -1.125380602E+00 -1.177227571E+00  7.649244038E+00  7.820695677E+00  5.110000000E-04  0.00000E+00  9.000E+00
     -11     1     3     3     0     0  3.773791774E-01  1.700595923E+00  6.175409259E+00  6.416394728E+00  5.110000000E-04  0.00000E+00  9.000E+00
       2     1     1     2   502     0 -4.007047358E-01 -1.420394751E-01  8.226850220E-01  9.260400332E-01  0.000000000E+00  0.00000E+00  9.000E+00
      21     1     1     2   501   511  1.148706160E+00 -3.813288772E-01 -5.478377390E+01  5.479714244E+01  0.000000000E+00  0.00000E+00  9.000E+00
#rwgt            1          24  -997569.34508330736                3     8255488           0
<weights>
-.11145E+08
-.69650E+07
-.15117E+08
-.13486E+08
-.90336E+07
-.58676E+07
-.18980E+08
-.11247E+08
-.11040E+08
-.11009E+08
-.11100E+08
-.11037E+08
-.11161E+08
-.11065E+08
-.11096E+08
-.11194E+08
-.11063E+08
-.11185E+08
-.11175E+08
-.11178E+08
-.11181E+08
-.11162E+08
-.11229E+08
-.11026E+08
-.11302E+08
-.11204E+08
-.10900E+08
-.11136E+08
-.11125E+08
-.11108E+08
-.11177E+08
-.11087E+08
-.11212E+08
-.11165E+08
-.11117E+08
-.11275E+08
-.11021E+08
-.10775E+08
-.11458E+08
-.11076E+08
-.11207E+08
-.11140E+08
-.11151E+08
-.11219E+08
-.11064E+08
</weights>
</event>
<event>
      7  10001  1.11453E+07  1.06241E+00 -1.00000E+00  5.39695E-01
       3    -1     0     0   511     0  0.000000000E+00  0.000000000E+00  5.229091073E-01  5.229091073E-01  0.000000000E+00  0.00000E+00  9.000E+00
      -3    -1     0     0     0   502  0.000000000E+00  0.000000000E+00 -1.626629579E+01  1.626629579E+01  0.000000000E+00  0.00000E+00  9.000E+00
      23     2     1     2     0     0  3.102620336E-01  4.817391978E-02 -1.299535060E+01  1.309177298E+01  1.554605771E+00  0.00000E+00  9.000E+00
      11     1     3     3     0     0  9.149681919E-01 -1.473082108E-01 -8.781836735E+00  8.830601520E+00  5.110000000E-04  0.00000E+00  9.000E+00
     -11     1     3     3     0     0 -6.047061583E-01  1.954821305E-01 -4.213513870E+00  4.261171458E+00  5.110000000E-04  0.00000E+00  9.000E+00
      21     1     1     2   501   502  2.464481649E-01  8.566998307E-01 -2.430128823E+00  2.588473951E+00  5.161913656E-08  0.00000E+00  9.000E+00
      21     1     1     2   511   501 -5.567101984E-01 -9.048737505E-01 -3.179072523E-01  1.108957966E+00  1.490116119E-08  0.00000E+00  9.000E+00
#rwgt            1          25   65446.236605795282                3     8332273           0
<weights>
0.11145E+08
0.13639E+08
0.88739E+07
0.11102E+08
0.10224E+08
0.12642E+08
0.85809E+07
0.11210E+08
0.11076E+08
0.10704E+08
0.10819E+08
0.11200E+08
0.10653E+08
0.10759E+08
0.10772E+08
0.11792E+08
0.10283E+08
0.11224E+08
0.11959E+08
0.11975E+08
0.11154E+08
0.11482E+08
0.11717E+08
0.12057E+08
0.10622E+08
0.88988E+07
0.14074E+08
0.10614E+08
0.12542E+08
0.11414E+08
0.11642E+08
0.11278E+08
0.11136E+08
0.11209E+08
0.11112E+08
0.11300E+08
0.11010E+08
0.11030E+08
0.11097E+08
0.11207E+08
0.11081E+08
0.11280E+08
0.11002E+08
0.11570E+08
0.10755E+08
</weights>
</event>
<event>
      7  10001  1.11453E+07  2.58103E+00 -1.00000E+00  3.12381E-01
       4    -1     0     0   501     0  0.000000000E+00  0.000000000E+00  8.359317021E+01  8.359317021E+01  0.000000000E+00  0.00000E+00  9.000E+00
      21    -1     0     0   511   502  0.000000000E+00  0.000000000E+00 -2.974215346E-01  2.974215346E-01  0.000000000E+00  0.00000E+00  9.000E+00
      23     2     1     2     0     0 -4.620038092E-01  1.970844084E-01  2.673817763E+01  2.677270464E+01  1.263044257E+00  0.00000E+00  9.000E+00
      11     1     3     3     0     0 -1.326436044E-01 -3.132948950E-01  2.094617714E+01  2.094893995E+01  5.110000000E-04  0.00000E+00  9.000E+00
     -11     1     3     3     0     0 -3.293602047E-01  5.103793033E-01  5.792000489E+00  5.823764685E+00  5.110000000E-04  0.00000E+00  9.000E+00
      21     1     1     2   501   502  2.650749245E+00 -1.564963535E+00  4.962596200E+01  4.972134036E+01  6.743495762E-07  0.00000E+00  9.000E+00
       4     1     1     2   511     0 -2.188745435E+00  1.367879127E+00  6.931609042E+00  7.396546748E+00  0.000000000E+00  0.00000E+00  9.000E+00
#rwgt            1          27   56542.083083495156                3     8334326           0
<weights>
0.11145E+08
0.12707E+08
0.95474E+07
0.13107E+08
0.89542E+07
0.10643E+08
0.11649E+08
0.11162E+08
0.11130E+08
0.10784E+08
0.10754E+08
0.10945E+08
0.10975E+08
0.10794E+08
0.10767E+08
0.11233E+08
0.11241E+08
0.11521E+08
0.11569E+08
0.11555E+08
0.11493E+08
0.11572E+08
0.11582E+08
0.11480E+08
0.11340E+08
0.11308E+08
0.11404E+08
0.11498E+08
0.11421E+08
0.11556E+08
0.11584E+08
0.11204E+08
0.11218E+08
0.11132E+08
0.11190E+08
0.11199E+08
0.11113E+08
0.11206E+08
0.11009E+08
0.11185E+08
0.11111E+08
0.11194E+08
0.11095E+08
0.11566E+08
0.10761E+08
</weights>
</event>
<event>
      6  10001 -1.11453E+07  8.94427E-01 -1.00000E+00  1.53326E-01
      21    -1     0     0   502   501  0.000000000E+00  0.000000000E+00  2.313127708E-02  2.313127708E-02  0.000000000E+00  0.00000E+00  9.000E+00
       4    -1     0     0   501     0  0.000000000E+00  0.000000000E+00 -2.557116809E+01  2.557116809E+01  0.000000000E+00  0.00000E+00  9.000E+00
      23     2     1     2     0     0  9.404019872E-02  2.526305777E-01 -2.215009559E+01  2.218568229E+01  1.226824610E+00  0.00000E+00  9.000E+00
      11     1     3     3     0     0 -1.763653017E-01  6.648114723E-01 -8.952291618E+00  8.978674985E+00  5.110000000E-04  0.00000E+00  9.000E+00
     -11     1     3     3     0     0  2.704055005E-01 -4.121808946E-01 -1.319780397E+01  1.320700731E+01  5.110000000E-04  0.00000E+00  9.000E+00
       4     1     1     2   502     0 -9.404019872E-02 -2.526305777E-01 -3.397941232E+00  3.408617078E+00  0.000000000E+00  0.00000E+00  9.000E+00
#rwgt            1          19  -10701233.538946291                3     8336631           0
<weights>
-.11145E+08
-.13048E+08
-.91257E+07
-.15858E+08
-.73120E+07
-.91702E+07
-.13910E+08
-.11245E+08
-.11046E+08
-.10859E+08
-.10936E+08
-.10949E+08
-.11105E+08
-.10918E+08
-.10937E+08
-.11198E+08
-.11158E+08
-.11339E+08
-.11367E+08
-.11361E+08
-.11328E+08
-.11346E+08
-.11404E+08
-.11194E+08
-.11380E+08
-.11342E+08
-.11045E+08
-.11326E+08
-.11210E+08
-.11288E+08
-.11360E+08
-.11109E+08
-.11248E+08
-.11163E+08
-.11133E+08
-.11314E+08
-.10995E+08
-.10820E+08
-.11423E+08
-.11101E+08
-.11187E+08
-.11140E+08
-.11152E+08
-.11396E+08
-.10902E+08
</weights>
</event>
<event>
      7  10001 -1.11453E+07  1.24267E+00 -1.00000E+00  4.85141E-01
      -2    -1     0     0     0   502  0.000000000E+00  0.000000000E+00  6.196452370E+00  6.196452370E+00  0.000000000E+00  0.00000E+00  9.000E+00
      21    -1     0     0   502   511  0.000000000E+00  0.000000000E+00 -6.146966143E+00  6.146966143E+00  0.000000000E+00  0.00000E+00  9.000E+00
      23     2     1     2     0     0 -4.639768038E-01  9.689981994E-01  5.306455533E+00  5.521980658E+00  1.086079225E+00  0.00000E+00  9.000E+00
      11     1     3     3     0     0 -8.062904243E-01  5.652603308E-01  3.085382649E+00  3.238704964E+00  5.110000000E-04  0.00000E+00  9.000E+00
     -11     1     3     3     0     0  3.423136204E-01  4.037378685E-01  2.221072884E+00  2.283275694E+00  5.110000000E-04  0.00000E+00  9.000E+00
      -2     1     1     2     0   501  3.092425238E-01  2.639993805E-01  6.601042241E-01  7.752833018E-01  0.000000000E+00  0.00000E+00  9.000E+00
      21     1     1     2   501   511  1.547342800E-01 -1.232997580E+00 -5.917073530E+00  6.046154553E+00  8.429369702E-08  0.00000E+00  9.000E+00
#rwgt            1           7  -839003.75225919974                3     8337276           0
<weights>
-.11145E+08
-.76028E+07
-.13862E+08
-.17362E+08
-.66197E+07
-.40782E+07
-.21727E+08
-.11272E+08
-.11011E+08
-.11050E+08
-.11159E+08
-.11050E+08
-.11197E+08
-.11114E+08
-.11153E+08
-.11191E+08
-.11029E+08
-.11133E+08
-.11090E+08
-.11100E+08
-.11132E+08
-.11093E+08
-.11163E+08
-.10924E+08
-.11301E+08
-.11194E+08
-.10715E+08
-.11078E+08
-.11071E+08
-.11033E+08
-.11107E+08
-.11070E+08
-.11207E+08
-.11168E+08
-.11108E+08
-.11297E+08
-.10996E+08
-.10710E+08
-.11531E+08
-.11057E+08
-.11223E+08
-.11128E+08
-.11164E+08
-.11159E+08
-.11116E+08
</weights>
</event>
<event>
      6  10001 -1.11453E+07  8.94427E-01 -1.00000E+00  2.25905E-01
       1    -1     0     0   501     0  0.000000000E+00  0.000000000E+00  5.621945014E+02  5.621945014E+02  0.000000000E+00  0.00000E+00  9.000E+00
      21    -1     0     0   502   501  0.000000000E+00  0.000000000E+00 -1.789555994E-02  1.789555994E-02  0.000000000E+00  0.00000E+00  9.000E+00
      23     2     1     2     0     0  3.742377143E-01  1.874721295E-01  5.596122515E+02  5.596141066E+02  1.378791360E+00  0.00000E+00  9.000E+00
      11     1     3     3     0     0 -5.098885919E-01  4.884522243E-02  1.491697273E+02  1.491706068E+02  5.110000000E-04  0.00000E+00  9.000E+00
     -11     1     3     3     0     0  8.841263063E-01  1.386269070E-01  4.104425242E+02  4.104434999E+02  5.110000000E-04  0.00000E+00  9.000E+00
       1     1     1     2   502     0 -3.742377143E-01 -1.874721295E-01  2.564354332E+00  2.598290362E+00  0.000000000E+00  0.00000E+00  9.000E+00
#rwgt            1          22  -7316611.0467606001                3     8360442           0
<weights>
-.11145E+08
-.11991E+08
-.10026E+08
-.14586E+08
-.80341E+07
-.91628E+07
-.13909E+08
-.11173E+08
-.11118E+08
-.10826E+08
-.10817E+08
-.10963E+08
-.11008E+08
-.10844E+08
-.10828E+08
-.11225E+08
-.11209E+08
-.11458E+08
-.11499E+08
-.11487E+08
-.11435E+08
-.11497E+08
-.11517E+08
-.11405E+08
-.11329E+08
-.11286E+08
-.11342E+08
-.11431E+08
-.11368E+08
-.11474E+08
-.11509E+08
-.11182E+08
-.11217E+08
-.11138E+08
-.11177E+08
-.11210E+08
-.11100E+08
-.11127E+08
-.11089E+08
-.11165E+08
-.11129E+08
-.11184E+08
-.11104E+08
-.11502E+08
-.10817E+08
</weights>
</event>
<event>
      7  10001  1.11453E+07  1.31751E+00 -1.00000E+00  4.66499E-01
       1    -1     0     0   501     0  0.000000000E+00  0.000000000E+00  1.430365232E-01  1.430365232E-01  0.000000000E+00  0.00000E+00  9.000E+00
      21    -1     0     0   502   501  0.000000000E+00  0.000000000E+00 -9.746204958E+00  9.746204958E+00  0.000000000E+00  0.00000E+00  9.000E+00
      23     2     1     2     0     0  1.499174428E-01 -3.583500834E-01 -8.938688241E+00  9.057424185E+00  1.409218004E+00  0.00000E+00  9.000E+00
      11     1     3     3     0     0  2.103145646E-01 -8.661913718E-01 -4.354284244E+00  4.444582235E+00  5.110000000E-04  0.00000E+00  9.000E+00
     -11     1     3     3     0     0 -6.039712186E-02  5.078412885E-01 -4.584403997E+00  4.612841950E+00  5.110000000E-04  0.00000E+00  9.000E+00
       1     1     1     2   511     0  3.828804807E-02 -1.587489871E-02 -2.087354973E-01  2.128109369E-01  0.000000000E+00  0.00000E+00  9.000E+00
      21     1     1     2   502   511 -1.882054908E-01  3.742249821E-01 -4.557446965E-01  6.190063589E-01  1.393875996E-08  0.00000E+00  9.000E+00
#rwgt            1          22   35034.198766212168                3     8363143           0
<weights>
0.11145E+08
0.13911E+08
0.84516E+07
0.11578E+08
0.10004E+08
0.12655E+08
0.85608E+07
0.11246E+08
0.11037E+08
0.10571E+08
0.10550E+08
0.10838E+08
0.10884E+08
0.10579E+08
0.10560E+08
0.11271E+08
0.11327E+08
0.11736E+08
0.11791E+08
0.11790E+08
0.11688E+08
0.11794E+08
0.11860E+08
0.11482E+08
0.11579E+08
0.11540E+08
0.11050E+08
0.11727E+08
0.11510E+08
0.11761E+08
0.11817E+08
0.11226E+08
0.11263E+08
0.11124E+08
0.11210E+08
0.11305E+08
0.11013E+08
0.11131E+08
0.10935E+08
0.11225E+08
0.11077E+08
0.11204E+08
0.11085E+08
0.11799E+08
0.10549E+08
</weights>
</event>
<event>
      7  10001  1.11453E+07  8.94427E-01 -1.00000E+00  6.07649E-01
       2    -1     0     0   501     0  0.000000000E+00  0.000000000E+00  1.583506499E+02  1.583506499E+02  0.000000000E+00  0.00000E+00  9.000E+00
      21    -1     0     0   502   501  0.000000000E+00  0.000000000E+00 -1.328915478E+00  1.328915478E+00  0.000000000E+00  0.00000E+00  9.000E+00
      23     2     1     2     0     0  1.810178332E-01 -2.071022964E-01  1.583194244E+02  1.583482632E+02  3.009428996E+00  0.00000E+00  9.000E+00
      11     1     3     3     0     0 -5.517244171E-01 -1.423560717E+00  6.434912627E+01  6.436723528E+01  5.110000000E-04  0.00000E+00  9.000E+00
     -11     1     3     3     0     0  7.327422503E-01  1.216458420E+00  9.397029814E+01  9.398102795E+01  5.110000000E-04  0.00000E+00  9.000E+00
       2     1     1     2   512     0 -3.062564824E-02  8.108207471E-03 -5.204637816E-02  6.093027849E-02  0.000000000E+00  0.00000E+00  9.000E+00
      21     1     1     2   502   512 -1.503921849E-01  1.989940890E-01 -1.245643656E+00  1.270371825E+00  8.935728282E-07  0.00000E+00  9.000E+00
#rwgt            2         248   34949618.022966765                3     8372491           0
<weights>
0.11145E+08
0.10337E+08
0.11908E+08
0.12564E+08
0.95413E+07
0.91702E+07
0.13910E+08
0.11199E+08
0.11089E+08
0.10855E+08
0.10861E+08
0.10971E+08
0.11037E+08
0.10879E+08
0.10870E+08
0.11224E+08
0.11183E+08
0.11422E+08
0.11433E+08
0.11428E+08
0.11400E+08
0.11446E+08
0.11470E+08
0.11313E+08
0.11338E+08
0.11289E+08
0.11156E+08
0.11390E+08
0.11324E+08
0.11418E+08
0.11458E+08
0.11170E+08
0.11214E+08
0.11139E+08
0.11170E+08
0.11233E+08
0.11073E+08
0.11074E+08
0.11143E+08
0.11152E+08
0.11141E+08
0.11174E+08
0.11115E+08
0.11458E+08
0.10856E+08
</weights>
</event>
<event>
      7  10001  1.11453E+07  9.52197E-01 -1.00000E+00  5.81888E-01
      -1    -1     0     0     0   501  0.000000000E+00  0.000000000E+00  2.180372221E+01  2.180372221E+01  0.000000000E+00  0.00000E+00  9.000E+00
      -2    -1     0     0     0   502  0.000000000E+00  0.000000000E+00 -7.549728314E-01  7.549728314E-01  0.000000000E+00  0.00000E+00  9.000E+00
      23     2     1     2     0     0  4.921682449E-01 -1.949907889E-01  5.680793816E+00  7.055902417E+00  4.151396097E+00  0.00000E+00  9.000E+00
      11     1     3     3     0     0 -1.109466939E+00  2.397612629E-01 -2.680173745E-03  1.135081405E+00  5.110000000E-04  0.00000E+00  9.000E+00
     -11     1     3     3     0     0  1.601635184E+00 -4.347520518E-01  5.683473990E+00  5.920821012E+00  5.110000000E-04  0.00000E+00  9.000E+00
      -2     1     1     2     0   501 -3.755988431E-01 -7.500444206E-01  1.101572610E+01  1.104761797E+01  0.000000000E+00  0.00000E+00  9.000E+00
      -1     1     1     2     0   502 -1.165694017E-01  9.450352095E-01  4.352229458E+00  4.455174658E+00  0.000000000E+00  0.00000E+00  9.000E+00
#rwgt            1          14   1674301.9659529086                3     8373540           0
<weights>
0.11145E+08
0.12704E+08
0.95285E+07
0.12682E+08
0.94557E+07
0.11045E+08
0.11031E+08
0.10972E+08
0.11345E+08
0.10814E+08
0.10771E+08
0.10974E+08
0.10955E+08
0.10820E+08
0.10786E+08
0.11177E+08
0.11309E+08
0.11521E+08
0.11497E+08
0.11481E+08
0.11500E+08
0.11551E+08
0.11544E+08
0.11460E+08
0.11296E+08
0.11374E+08
0.11151E+08
0.11514E+08
0.11334E+08
0.11541E+08
0.11546E+08
0.11160E+08
0.11255E+08
0.11143E+08
0.11180E+08
0.11006E+08
0.11321E+08
0.11192E+08
0.11024E+08
0.11176E+08
0.11116E+08
0.11223E+08
0.11063E+08
0.11537E+08
0.10788E+08
</weights>
</event>
<event>
      6  10001 -1.11453E+07  8.94427E-01 -1.00000E+00  6.67892E-01
       2    -1     0     0   501     0  0.000000000E+00  0.000000000E+00  6.976625668E+02  6.976625668E+02  0.000000000E+00  0.00000E+00  9.000E+00
      21    -1     0     0   502   501  0.000000000E+00  0.000000000E+00 -2.052059424E-03  2.052059424E-03  0.000000000E+00  0.00000E+00  9.000E+00
      23     2     1     2     0     0  3.517452542E-01 -5.279739638E-01  5.425430379E+02  5.425458446E+02  1.625769242E+00  0.00000E+00  9.000E+00
      11     1     3     3     0     0 -1.048246485E-01 -5.492485245E-01  6.035462670E+01  6.035721686E+01  5.110000000E-04  0.00000E+00  9.000E+00
     -11     1     3     3     0     0  4.565699027E-01  2.127456075E-02  4.821884111E+02  4.821886278E+02  5.110000000E-04  0.00000E+00  9.000E+00
       2     1     1     2   502     0 -3.517452542E-01  5.279739638E-01  1.551174769E+02  1.551187742E+02  0.000000000E+00  0.00000E+00  9.000E+00
#rwgt            1          24  -19309724.441536427                3     8409158           0
<weights>
-.11145E+08
-.11647E+08
-.10444E+08
-.14169E+08
-.83684E+07
-.91617E+07
-.13909E+08
-.11169E+08
-.11123E+08
-.10821E+08
-.10810E+08
-.10961E+08
-.11004E+08
-.10838E+08
-.10820E+08
-.11226E+08
-.11213E+08
-.11465E+08
-.11510E+08
-.11497E+08
-.11442E+08
-.11506E+08
-.11525E+08
-.11420E+08
-.11328E+08
-.11287E+08
-.11373E+08
-.11438E+08
-.11375E+08
-.11484E+08
-.11518E+08
-.11185E+08
-.11217E+08
-.11137E+08
-.11178E+08
-.11206E+08
-.11104E+08
-.11137E+08
-.11079E+08
-.11167E+08
-.11127E+08
-.11186E+08
-.11103E+08
-.11509E+08
-.10811E+08
</weights>
</event>
<event>
      6  10001 -1.11453E+07  8.94427E-01 -1.00000E+00  3.97276E-01
      -1    -1     0     0     0   502  0.000000000E+00  0.000000000E+00  1.218179580E+02  1.218179580E+02  0.000000000E+00  0.00000E+00  9.000E+00
      21    -1     0     0   502   501  0.000000000E+00  0.000000000E+00 -2.212462063E-02  2.212462063E-02  0.000000000E+00  0.00000E+00  9.000E+00
      23     2     1     2     0     0  3.170000498E-01  8.213958363E-02  1.203637245E+02  1.203710109E+02  1.283295969E+00  0.00000E+00  9.000E+00
      11     1     3     3     0     0  6.226213359E-01  2.279505826E-01  1.095060716E+02  1.095080788E+02  5.110000000E-04  0.00000E+00  9.000E+00
     -11     1     3     3     0     0 -3.056212861E-01 -1.458109989E-01  1.085765293E+01  1.086293204E+01  5.110000000E-04  0.00000E+00  9.000E+00
      -1     1     1     2     0   501 -3.170000498E-01 -8.213958363E-02  1.432108916E+00  1.469071778E+00  0.000000000E+00  0.00000E+00  9.000E+00
#rwgt            1           9  -3373824.2953917719                3     8410028           0
<weights>
-.11145E+08
-.11932E+08
-.10152E+08
-.14507E+08
-.81344E+07
-.91670E+07
-.13909E+08
-.11174E+08
-.11117E+08
-.10826E+08
-.10817E+08
-.10963E+08
-.11009E+08
-.10844E+08
-.10828E+08
-.11226E+08
-.11208E+08
-.11458E+08
-.11498E+08
-.11486E+08
-.11435E+08
-.11496E+08
-.11516E+08
-.11403E+08
-.11329E+08
-.11287E+08
-.11333E+08
-.11431E+08
-.11368E+08
-.11474E+08
-.11509E+08
-.11182E+08
-.11217E+08
-.11138E+08
-.11177E+08
-.11210E+08
-.11099E+08
-.11127E+08
-.11089E+08
-.11165E+08
-.11129E+08
-.11184E+08
-.11105E+08
-.11501E+08
-.10818E+08
</weights>
</event>
<event>
      6  10001 -1.11453E+07  8.94427E-01 -1.00000E+00  6.03746E-01
       4    -1     0     0   501     0  0.000000000E+00  0.000000000E+00  5.111782731E+01  5.111782731E+01  0.000000000E+00  0.00000E+00  9.000E+00
      21    -1     0     0   502   501  0.000000000E+00  0.000000000E+00 -2.078532825E-01  2.078532825E-01  0.000000000E+00  0.00000E+00  9.000E+00
      23     2     1     2     0     0 -4.527300458E-02  2.913375966E-01  5.099948693E+01  5.101755757E+01  1.325362524E+00  0.00000E+00  9.000E+00
      11     1     3     3     0     0  6.037679486E-02 -3.258651977E-01  3.942602542E+00  3.956507115E+00  5.110000000E-04  0.00000E+00  9.000E+00
     -11     1     3     3     0     0 -1.056497994E-01  6.172027944E-01  4.705688439E+01  4.706105045E+01  5.110000000E-04  0.00000E+00  9.000E+00
       4     1     1     2   502     0  4.527300458E-02 -2.913375966E-01 -8.951290058E-02  3.081230266E-01  0.000000000E+00  0.00000E+00  9.000E+00
#rwgt            1          28  -5040711.5135438740                3     8410348           0
<weights>
-.11180E+08
-.71466E+07
-.14432E+08
-.12233E+08
-.98886E+07
-.68804E+07
-.16755E+08
-.11280E+08
-.11076E+08
-.11022E+08
-.11104E+08
-.11060E+08
-.11182E+08
-.11074E+08
-.11101E+08
-.11233E+08
-.11113E+08
-.11253E+08
-.11239E+08
-.11242E+08
-.11246E+08
-.11234E+08
-.11295E+08
-.11088E+08
-.11350E+08
-.11260E+08
-.10938E+08
-.11206E+08
-.11181E+08
-.11183E+08
-.11248E+08
-.11132E+08
-.11248E+08
-.11196E+08
-.11159E+08
-.11312E+08
-.11055E+08
-.10846E+08
-.11461E+08
-.11120E+08
-.11234E+08
-.11177E+08
-.11183E+08
-.11286E+08
-.11070E+08
</weights>
</event>
<event>
      7  10001  1.11453E+07  1.61206E+00 -1.00000E+00  3.99297E-01
      21    -1     0     0   502   511  0.000000000E+00  0.000000000E+00  2.855430284E+02  2.855430284E+02  0.000000000E+00  0.00000E+00  9.000E+00
       2    -1     0     0   501     0  0.000000000E+00  0.000000000E+00 -4.777313013E+00  4.777313013E+00  0.000000000E+00  0.00000E+00  9.000E+00
      23     2     1     2     0     0 -1.002031313E+00 -3.072058460E-01 -3.548963315E+00  3.917313709E+00  1.285209671E+00  0.00000E+00  9.000E+00
      11     1     3     3     0     0  1.134331882E-01  3.333446992E-01 -5.366049129E-01  6.418184092E-01  5.110000000E-04  0.00000E+00  9.000E+00
     -11     1     3     3     0     0 -1.115464501E+00 -6.405505452E-01 -3.012358402E+00  3.275495299E+00  5.110000000E-04  0.00000E+00  9.000E+00
       2     1     1     2   502     0 -1.044966014E-01  1.479524153E+00 -5.140298324E-01  1.569757283E+00  0.000000000E+00  0.00000E+00  9.000E+00
      21     1     1     2   501   511  1.106527914E+00 -1.172318307E+00  2.848287086E+02  2.848332705E+02  5.394796609E-06  0.00000E+00  9.000E+00
#rwgt            1          17   1245222.3275980821                3     8503894           0
<weights>
0.11145E+08
0.14678E+08
0.78250E+07
0.12358E+08
0.94771E+07
0.12697E+08
0.84960E+07
0.10968E+08
0.11319E+08
0.10819E+08
0.10759E+08
0.11037E+08
0.10865E+08
0.10812E+08
0.10776E+08
0.11046E+08
0.11517E+08
0.11467E+08
0.11610E+08
0.11600E+08
0.11445E+08
0.11574E+08
0.11547E+08
0.11462E+08
0.11316E+08
0.11444E+08
0.11029E+08
0.11669E+08
0.11154E+08
0.11583E+08
0.11537E+08
0.11167E+08
0.11251E+08
0.11097E+08
0.11256E+08
0.10811E+08
0.11514E+08
0.11216E+08
0.10958E+08
0.11163E+08
0.11122E+08
0.11281E+08
0.11002E+08
0.11542E+08
0.10786E+08
</weights>
</event>
<event>
      7  10001  1.11453E+07  8.13475E+00 -1.00000E+00  2.06042E-01
      21    -1     0     0   502   501  0.000000000E+00  0.000000000E+00  8.848789858E-01  8.848789858E-01  0.000000000E+00  0.00000E+00  9.000E+00
      -2    -1     0     0     0   502  0.000000000E+00  0.000000000E+00 -2.061550917E+01  2.061550917E+01  0.000000000E+00  0.00000E+00  9.000E+00
      23     2     1     2     0     0 -3.574049635E-01 -6.298454836E-01 -1.569452749E+01  1.575597450E+01  1.186632143E+00  0.00000E+00  9.000E+00
      11     1     3     3     0     0  1.020853287E-01  3.012400405E-01 -5.357309562E+00  5.366743237E+00  5.110000000E-04  0.00000E+00  9.000E+00
     -11     1     3     3     0     0 -4.594902922E-01 -9.310855241E-01 -1.033721793E+01  1.038923126E+01  5.110000000E-04  0.00000E+00  9.000E+00
      -2     1     1     2     0   511 -1.911139645E-01  2.389653281E-01 -4.751787525E+00  4.761629307E+00  0.000000000E+00  0.00000E+00  9.000E+00
      21     1     1     2   511   501  5.485189280E-01  3.908801555E-01  7.156848243E-01  9.827843497E-01  4.852610674E-07  0.00000E+00  9.000E+00
#rwgt            2         160   4865790.1514353137                3     8513149           0
<weights>
0.11145E+08
0.11112E+08
0.10949E+08
0.13505E+08
0.87732E+07
0.91702E+07
0.13910E+08
0.11210E+08
0.11078E+08
0.10913E+08
0.10961E+08
0.11008E+08
0.11045E+08
0.10953E+08
0.10962E+08
0.11125E+08
0.11250E+08
0.11340E+08
0.11311E+08
0.11292E+08
0.11338E+08
0.11325E+08
0.11371E+08
0.11241E+08
0.11299E+08
0.11345E+08
0.11034E+08
0.11320E+08
0.11149E+08
0.11287E+08
0.11331E+08
0.11093E+08
0.11255E+08
0.11214E+08
0.11088E+08
0.11066E+08
0.11233E+08
0.10923E+08
0.11314E+08
0.11121E+08
0.11161E+08
0.11225E+08
0.11060E+08
0.11357E+08
0.10943E+08
</weights>
</event>
<event>
      6  10001  1.11453E+07  8.94427E-01 -1.00000E+00  6.04301E-01
      -5    -1     0     0     0   502  0.000000000E+00  0.000000000E+00  4.046994921E-01  4.046994921E-01  0.000000000E+00  0.00000E+00  9.000E+00
      21    -1     0     0   502   501  0.000000000E+00  0.000000000E+00 -1.403245237E+01  1.403245237E+01  0.000000000E+00  0.00000E+00  9.000E+00
      23     2     1     2     0     0  9.739393454E-01 -2.711275756E-01 -4.567389826E+00  5.320560029E+00  2.534805948E+00  0.00000E+00  9.000E+00
      11     1     3     3     0     0  1.276846820E+00  8.698655916E-01 -2.721154404E+00  3.129166902E+00  5.110000000E-04  0.00000E+00  9.000E+00
     -11     1     3     3     0     0 -3.029074741E-01 -1.140993167E+00 -1.846235422E+00  2.191393128E+00  5.110000000E-04  0.00000E+00  9.000E+00
      -5     1     1     2     0   501 -9.739393454E-01  2.711275756E-01 -9.060363055E+00  9.116591835E+00  0.000000000E+00  0.00000E+00  9.000E+00
#rwgt            1           1   87969.403037893149                3     8513818           0
<weights>
0.11145E+08
0.16645E+08
0.56072E+07
0.13358E+08
0.83074E+07
0.13530E+08
0.72165E+07
0.11286E+08
0.10997E+08
0.10451E+08
0.10456E+08
0.10780E+08
0.10836E+08
0.10467E+08
0.10461E+08
0.11290E+08
0.11354E+08
0.11832E+08
0.11912E+08
0.11912E+08
0.11775E+08
0.11892E+08
0.12002E+08
0.11498E+08
0.11700E+08
0.11630E+08
0.10990E+08
0.11812E+08
0.11561E+08
0.11840E+08
0.11925E+08
0.11215E+08
0.11305E+08
0.11133E+08
0.11203E+08
0.11361E+08
0.10963E+08
0.11033E+08
0.10978E+08
0.11238E+08
0.11065E+08
0.11211E+08
0.11077E+08
0.11915E+08
0.10443E+08
</weights>
</event>
<event>
      6  10001 -1.11453E+07  8.94427E-01 -1.00000E+00  2.90447E-01
       2    -1     0     0   501     0  0.000000000E+00  0.000000000E+00  4.853982408E+02  4.853982408E+02  0.000000000E+00  0.00000E+00  9.000E+00
      21    -1     0     0   502   501  0.000000000E+00  0.000000000E+00 -7.117976498E-03  7.117976498E-03  0.000000000E+00  0.00000E+00  9.000E+00
      23     2     1     2     0     0  1.172059200E-01  4.786796078E-01  4.753203731E+02  4.753225580E+02  1.354324007E+00  0.00000E+00  9.000E+00
      11     1     3     3     0     0 -2.692840588E-01  2.524779804E-01  3.480730953E+01  3.480926681E+01  5.110000000E-04  0.00000E+00  9.000E+00
     -11     1     3     3     0     0  3.864899788E-01  2.262016274E-01  4.405130636E+02  4.405132912E+02  5.110000000E-04  0.00000E+00  9.000E+00
       2     1     1     2   502     0 -1.172059200E-01 -4.786796078E-01  1.007074969E+01  1.008280073E+01  0.000000000E+00  0.00000E+00  9.000E+00
#rwgt            1          24  -79155119.661266312                3     8515702           0
<weights>
-.11145E+08
-.10845E+08
-.11560E+08
-.13186E+08
-.92630E+07
-.91671E+07
-.13909E+08
-.11194E+08
-.11096E+08
-.10872E+08
-.10893E+08
-.10984E+08
-.11045E+08
-.10901E+08
-.10899E+08
-.11219E+08
-.11165E+08
-.11384E+08
-.11415E+08
-.11407E+08
-.11366E+08
-.11407E+08
-.11442E+08
-.11305E+08
-.11320E+08
-.11250E+08
-.11234E+08
-.11346E+08
-.11309E+08
-.11375E+08
-.11421E+08
-.11156E+08
-.11217E+08
-.11148E+08
-.11158E+08
-.11224E+08
-.11083E+08
-.11028E+08
-.11196E+08
-.11141E+08
-.11150E+08
-.11175E+08
-.11114E+08
-.11427E+08
-.10882E+08
</weights>
</event>
<event>
      7  10001  1.11453E+07  1.30499E+00 -1.00000E+00  4.69430E-01
      -3    -1     0     0     0   502  0.000000000E+00  0.000000000E+00  7.076237203E-01  7.076237203E-01  0.000000000E+00  0.00000E+00  9.000E+00
      21    -1     0     0   502   511  0.000000000E+00  0.000000000E+00 -1.242232575E+02  1.242232575E+02  0.000000000E+00  0.00000E+00  9.000E+00
      23     2     1     2     0     0  2.692642736E-01 -4.435686470E-01 -7.030833744E-01  1.931517750E+00  1.722549911E+00  0.00000E+00  9.000E+00
      11     1     3     3     0     0 -1.584876756E-01  3.040245751E-01 -9.707913351E-01  1.029555906E+00  5.110000000E-04  0.00000E+00  9.000E+00
     -11     1     3     3     0     0  4.277519492E-01 -7.475932221E-01  2.677079607E-01  9.019618446E-01  5.110000000E-04  0.00000E+00  9.000E+00
      -3     1     1     2     0   501 -5.237364817E-01 -8.363692931E-01 -2.619253845E+00  2.798982708E+00  0.000000000E+00  0.00000E+00  9.000E+00
      21     1     1     2   501   511  2.544722081E-01  1.279937940E+00 -1.201932965E+02  1.202003807E+02  1.907348633E-06  0.00000E+00  9.000E+00
#rwgt            1           5   90966.610318370018                3     8517235           0
<weights>
0.11145E+08
0.18307E+08
0.48919E+07
0.92484E+07
0.11574E+08
0.17570E+08
0.10156E+07
0.11278E+08
0.10998E+08
0.10035E+08
0.99175E+07
0.10586E+08
0.10567E+08
0.10030E+08
0.99446E+07
0.11396E+08
0.11553E+08
0.12378E+08
0.12429E+08
0.12425E+08
0.12278E+08
0.12520E+08
0.12544E+08
0.11973E+08
0.11884E+08
0.11856E+08
0.11150E+08
0.12364E+08
0.11970E+08
0.12493E+08
0.12549E+08
0.11373E+08
0.11335E+08
0.11090E+08
0.11300E+08
0.11355E+08
0.10989E+08
0.11471E+08
0.10492E+08
0.11369E+08
0.10952E+08
0.11287E+08
0.10997E+08
0.12471E+08
0.99453E+07
</weights>
</event>
<event>
      6  10001 -1.11453E+07  8.94427E-01 -1.00000E+00  3.94835E-01
       2    -1     0     0   501     0  0.000000000E+00  0.000000000E+00  2.121353519E+02  2.121353519E+02  0.000000000E+00  0.00000E+00  9.000E+00
      21    -1     0     0   502   501  0.000000000E+00  0.000000000E+00 -7.393085213E-03  7.393085213E-03  0.000000000E+00  0.00000E+00  9.000E+00
      23     2     1     2     0     0 -3.337869790E-01 -6.329051856E-02  2.073262292E+02  2.073290119E+02  1.019028703E+00  0.00000E+00  9.000E+00
      11     1     3     3     0     0  3.513111423E-01 -1.409560543E-01  6.322534005E+01  6.322647320E+01  5.110000000E-04  0.00000E+00  9.000E+00
     -11     1     3     3     0     0 -6.850981213E-01  7.766553575E-02  1.441008892E+02  1.441025387E+02  5.110000000E-04  0.00000E+00  9.000E+00
       2     1     1     2   502     0  3.337869790E-01  6.329051856E-02  4.801729590E+00  4.813733114E+00  0.000000000E+00  0.00000E+00  9.000E+00
#rwgt            1          24  -22381780.172555346                3     8523278           0
<weights>
-.11145E+08
-.12007E+08
-.10083E+08
-.14601E+08
-.80789E+07
-.91655E+07
-.13909E+08
-.11176E+08
-.11115E+08
-.10831E+08
-.10825E+08
-.10965E+08
-.11013E+08
-.10850E+08
-.10835E+08
-.11225E+08
-.11205E+08
-.11451E+08
-.11489E+08
-.11478E+08
-.11428E+08
-.11487E+08
-.11508E+08
-.11392E+08
-.11328E+08
-.11285E+08
-.11321E+08
-.11423E+08
-.11361E+08
-.11464E+08
-.11500E+08
-.11180E+08
-.11216E+08
-.11138E+08
-.11175E+08
-.11212E+08
-.11097E+08
-.11117E+08
-.11098E+08
-.11163E+08
-.11131E+08
-.11183E+08
-.11106E+08
-.11494E+08
-.10824E+08
</weights>
</event>
<event>
      7  10001  1.11453E+07  1.71508E+00 -1.00000E+00  3.85096E-01
      21    -1     0     0   511   501  0.000000000E+00  0.000000000E+00  8.594672945E+00  8.594672945E+00  0.000000000E+00  0.00000E+00  9.000E+00
       3    -1     0     0   501     0  0.000000000E+00  0.000000000E+00 -2.087263477E+00  2.087263477E+00  0.000000000E+00  0.00000E+00  9.000E+00
      23     2     1     2     0     0  1.399960010E+00  1.155671944E+00 -4.535067793E-01  2.174500259E+00  1.107843537E+00  0.00000E+00  9.000E+00
      11     1     3     3     0     0  1.417651003E-01  8.090147422E-01 -1.584777379E-01  8.364912738E-01  5.110000000E-04  0.00000E+00  9.000E+00
     -11     1     3     3     0     0  1.258194910E+00  3.466572023E-01 -2.950290414E-01  1.338008985E+00  5.110000000E-04  0.00000E+00  9.000E+00
       3     1     1     2   502     0 -1.267968438E+00  5.543206465E-01  4.771144698E-02  1.384663035E+00  0.000000000E+00  0.00000E+00  9.000E+00
      21     1     1     2   511   502 -1.319915722E-01 -1.709992591E+00  6.913204800E+00  7.122773129E+00  8.429369702E-08  0.00000E+00  9.000E+00
#rwgt            1          18   180261.80890388566                3     8526614           0
<weights>
0.11145E+08
0.14038E+08
0.84250E+07
0.12263E+08
0.95013E+07
0.12230E+08
0.92127E+07
0.11187E+08
0.11098E+08
0.10774E+08
0.10772E+08
0.11037E+08
0.10872E+08
0.10790E+08
0.10775E+08
0.11281E+08
0.11071E+08
0.11233E+08
0.12112E+08
0.12005E+08
0.11234E+08
0.11537E+08
0.11629E+08
0.12425E+08
0.10784E+08
0.10324E+08
0.14653E+08
0.11176E+08
0.11894E+08
0.11517E+08
0.11613E+08
0.11252E+08
0.11169E+08
0.11149E+08
0.11174E+08
0.11238E+08
0.11070E+08
0.11211E+08
0.10984E+08
0.11198E+08
0.11097E+08
0.11218E+08
0.11068E+08
0.11563E+08
0.10764E+08
</weights>
</event>
<event>
      7  10001 -1.11453E+07  1.28555E+00 -1.00000E+00  4.74158E-01
       2    -1     0     0   501     0  0.000000000E+00  0.000000000E+00  1.007040065E+01  1.007040065E+01  0.000000000E+00  0.00000E+00  9.000E+00
      21    -1     0     0   511   501  0.000000000E+00  0.000000000E+00 -2.067553375E+01  2.067553375E+01  0.000000000E+00  0.00000E+00  9.000E+00
      23     2     1     2     0     0  7.557338649E-01 -1.386923460E-02  6.567177466E+00  6.743004035E+00  1.330021621E+00  0.00000E+00  9.000E+00
      11     1     3     3     0     0  4.901600998E-01  8.954029313E-02  6.385747707E+00  6.405157955E+00  5.110000000E-04  0.00000E+00  9.000E+00
     -11     1     3     3     0     0  2.655737651E-01 -1.034095277E-01  1.814297591E-01  3.378460800E-01  5.110000000E-04  0.00000E+00  9.000E+00
       2     1     1     2   502     0  4.240305710E-01  5.245549751E-01  3.361708636E+00  3.428708912E+00  0.000000000E+00  0.00000E+00  9.000E+00
      21     1     1     2   511   502 -1.179764436E+00 -5.106857405E-01 -2.053401920E+01  2.057422145E+01  0.000000000E+00  0.00000E+00  9.000E+00
#rwgt            1          24  -637884.54118584865                3     8530269           0
<weights>
-.11145E+08
-.75226E+07
-.13972E+08
-.18287E+08
-.60027E+07
-.33656E+07
-.22821E+08
-.11282E+08
-.10999E+08
-.11067E+08
-.11186E+08
-.11059E+08
-.11208E+08
-.11135E+08
-.11178E+08
-.11192E+08
-.11008E+08
-.11108E+08
-.11054E+08
-.11067E+08
-.11108E+08
-.11062E+08
-.11133E+08
-.10884E+08
-.11295E+08
-.11173E+08
-.10655E+08
-.11045E+08
-.11053E+08
-.11000E+08
-.11076E+08
-.11063E+08
-.11206E+08
-.11171E+08
-.11102E+08
-.11301E+08
-.10990E+08
-.10682E+08
-.11569E+08
-.11049E+08
-.11230E+08
-.11126E+08
-.11166E+08
-.11132E+08
-.11140E+08
</weights>
</event>
<event>
      7  10001  1.11453E+07  2.43102E+01 -1.00000E+00  1.59538E-01
      21    -1     0     0   502   501  0.000000000E+00  0.000000000E+00  4.046929949E+00  4.046929949E+00  0.000000000E+00  0.00000E+00  9.000E+00
      -2    -1     0     0     0   502  0.000000000E+00  0.000000000E+00 -3.695616780E+01  3.695616780E+01  0.000000000E+00  0.00000E+00  9.000E+00
      23     2     1     2     0     0  3.810021618E-01 -1.869608890E+00 -1.899206002E+01  1.913430537E+01  1.335177180E+00  0.00000E+00  9.000E+00
      11     1     3     3     0     0  1.638733526E-01 -2.052883384E-01 -8.881003592E+00  8.884887328E+00  5.110000000E-04  0.00000E+00  9.000E+00
     -11     1     3     3     0     0  2.171288092E-01 -1.664320552E+00 -1.011105643E+01  1.024941804E+01  5.110000000E-04  0.00000E+00  9.000E+00
      -2     1     1     2     0   511  1.086500819E-02 -1.508219273E+00 -1.712662813E+01  1.719291233E+01  0.000000000E+00  0.00000E+00  9.000E+00
      21     1     1     2   511   501 -3.918671700E-01  3.377828163E+00  3.209450299E+00  4.675880045E+00  1.136402843E-06  0.00000E+00  9.000E+00
#rwgt            2         160   252773364.58425480                3     8567569           0
<weights>
0.11145E+08
0.10421E+08
0.11810E+08
0.12665E+08
0.94631E+07
0.91702E+07
0.13910E+08
0.11225E+08
0.11066E+08
0.10973E+08
0.11039E+08
0.11031E+08
0.11079E+08
0.11027E+08
0.11038E+08
0.11101E+08
0.11226E+08
0.11269E+08
0.11211E+08
0.11187E+08
0.11275E+08
0.11238E+08
0.11271E+08
0.11198E+08
0.11239E+08
0.11286E+08
0.11055E+08
0.11239E+08
0.11087E+08
0.11200E+08
0.11243E+08
0.11083E+08
0.11238E+08
0.11243E+08
0.11053E+08
0.11059E+08
0.11231E+08
0.10899E+08
0.11386E+08
0.11104E+08
0.11174E+08
0.11237E+08
0.11047E+08
0.11274E+08
0.11015E+08
</weights>
</event>
<event>
      6  10001 -1.11453E+07  8.94427E-01 -1.00000E+00  6.49451E-01
       2    -1     0     0   501     0  0.000000000E+00  0.000000000E+00  5.666369222E+02  5.666369222E+02  0.000000000E+00  0.00000E+00  9.000E+00
      21    -1     0     0   502   501  0.000000000E+00  0.000000000E+00 -4.802396464E-03  4.802396464E-03  0.000000000E+00  0.00000E+00  9.000E+00
      23     2     1     2     0     0 -2.375303468E-02  4.768048384E-01  5.382243611E+02  5.382299548E+02  2.406965098E+00  0.00000E+00  9.000E+00
      11     1     3     3     0     0 -9.756178390E-01 -5.074791381E-02  4.040247235E+02  4.040259046E+02  5.110000000E-04  0.00000E+00  9.000E+00
     -11     1     3     3     0     0  9.518648043E-01  5.275527523E-01  1.341996376E+02  1.342040502E+02  5.110000000E-04  0.00000E+00  9.000E+00
       2     1     1     2   502     0  2.375303468E-02 -4.768048384E-01  2.840775868E+01  2.841176975E+01  0.000000000E+00  0.00000E+00  9.000E+00
#rwgt            1          24  -45511083.598938562                3     8570575           0
<weights>
-.11145E+08
-.11908E+08
-.10173E+08
-.14485E+08
-.81518E+07
-.91630E+07
-.13909E+08
-.11180E+08
-.11110E+08
-.10838E+08
-.10835E+08
-.10967E+08
-.11019E+08
-.10858E+08
-.10844E+08
-.11224E+08
-.11199E+08
-.11442E+08
-.11476E+08
-.11466E+08
-.11420E+08
-.11476E+08
-.11499E+08
-.11376E+08
-.11329E+08
-.11283E+08
-.11291E+08
-.11413E+08
-.11352E+08
-.11451E+08
-.11488E+08
-.11177E+08
-.11216E+08
-.11139E+08
-.11174E+08
-.11216E+08
-.11093E+08
-.11106E+08
-.11110E+08
-.11160E+08
-.11133E+08
-.11181E+08
-.11108E+08
-.11484E+08
-.10833E+08
</weights>
</event>
<event>
      6  10001 -1.11453E+07  8.94427E-01 -1.00000E+00  4.38533E-01
      21    -1     0     0   502   501  0.000000000E+00  0.000000000E+00  1.559437970E-03  1.559437970E-03  0.000000000E+00  0.00000E+00  9.000E+00
       2    -1     0     0   501     0  0.000000000E+00  0.000000000E+00 -1.009157220E+03  1.009157220E+03  0.000000000E+00  0.00000E+00  9.000E+00
      23     2     1     2     0     0  2.216460272E-01 -2.250039818E-01 -9.884083955E+02  9.884091105E+02  1.146149148E+00  0.00000E+00  9.000E+00
      11     1     3     3     0     0  5.241887852E-01  9.632503590E-02 -2.430595112E+02  2.430600955E+02  5.110000000E-04  0.00000E+00  9.000E+00
     -11     1     3     3     0     0 -3.025427580E-01 -3.213290176E-01 -7.453488844E+02  7.453490151E+02  5.110000000E-04  0.00000E+00  9.000E+00
       2     1     1     2   502     0 -2.216460272E-01  2.250039818E-01 -2.074726532E+01  2.074966921E+01  0.000000000E+00  0.00000E+00  9.000E+00
#rwgt            1          17  -52929847.525339350                3     8571904           0
<weights>
-.11145E+08
-.10972E+08
-.11332E+08
-.13336E+08
-.90798E+07
-.91702E+07
-.13910E+08
-.11140E+08
-.11150E+08
-.11165E+08
-.11131E+08
-.10898E+08
-.11420E+08
-.11151E+08
-.11143E+08
-.10655E+08
-.11877E+08
-.11612E+08
-.10521E+08
-.10412E+08
-.11683E+08
-.11136E+08
-.11151E+08
-.10870E+08
-.11400E+08
-.11759E+08
-.10785E+08
-.10460E+08
-.11967E+08
-.11044E+08
-.11217E+08
-.11266E+08
-.11020E+08
-.11881E+08
-.10292E+08
-.11024E+08
-.11258E+08
-.11104E+08
-.11201E+08
-.11359E+08
-.10958E+08
-.11108E+08
-.11184E+08
-.11141E+08
-.11150E+08
</weights>
</event>
<event>
      6  10001  1.11453E+07  8.94427E-01 -1.00000E+00  6.07180E-01
      -2    -1     0     0     0   502  0.000000000E+00  0.000000000E+00  2.706308956E-01  2.706308956E-01  0.000000000E+00  0.00000E+00  9.000E+00
       2    -1     0     0   501     0  0.000000000E+00  0.000000000E+00 -1.071499421E+02  1.071499421E+02  0.000000000E+00  0.00000E+00  9.000E+00
      23     2     1     2     0     0 -4.452836499E-01  6.035840840E-02 -1.069514225E+02  1.069654678E+02  1.674098006E+00  0.00000E+00  9.000E+00
      11     1     3     3     0     0  5.357013564E-01  3.328751893E-01 -2.602597038E+01  2.603361128E+01  5.110000000E-04  0.00000E+00  9.000E+00
     -11     1     3     3     0     0 -9.809850064E-01 -2.725167809E-01 -8.092545213E+01  8.093185652E+01  5.110000000E-04  0.00000E+00  9.000E+00
      21     1     1     2   501   502  4.452836499E-01 -6.035840840E-02  7.211133615E-02  4.551051649E-01  1.718258601E-07  0.00000E+00  9.000E+00
#rwgt            1           8   6930895.3912189305                3     8572485           0
<weights>
0.11145E+08
0.11574E+08
0.10677E+08
0.12189E+08
0.98893E+07
0.10485E+08
0.11892E+08
0.11160E+08
0.11130E+08
0.11135E+08
0.11159E+08
0.11177E+08
0.11083E+08
0.11155E+08
0.11157E+08
0.11171E+08
0.11072E+08
0.11059E+08
0.11215E+08
0.11227E+08
0.11049E+08
0.11130E+08
0.11124E+08
0.11254E+08
0.11013E+08
0.11047E+08
0.11192E+08
0.11261E+08
0.10929E+08
0.11144E+08
0.11116E+08
0.11134E+08
0.11149E+08
0.11058E+08
0.11251E+08
0.11137E+08
0.11148E+08
0.11116E+08
0.11181E+08
0.11091E+08
0.11187E+08
0.11206E+08
0.11080E+08
0.11135E+08
0.11151E+08
</weights>
</event>
<event>
      7  10001 -1.11453E+07  1.63709E+00 -1.00000E+00  3.95667E-01
      21    -1     0     0   511   501  0.000000000E+00  0.000000000E+00  1.249498525E+02  1.249498525E+02  0.000000000E+00  0.00000E+00  9.000E+00
      -4    -1     0     0     0   502  0.000000000E+00  0.000000000E+00 -3.986003981E+00  3.986003981E+00  0.000000000E+00  0.00000E+00  9.000E+00
      23     2     1     2     0     0  8.456296735E-01 -4.820671690E-01 -2.134230909E+00  2.574656038E+00  1.061335875E+00  0.00000E+00  9.000E+00
      11     1     3     3     0     0  6.723699882E-01  1.433468801E-01 -6.142038137E-01  9.218873657E-01  5.110000000E-04  0.00000E+00  9.000E+00
     -11     1     3     3     0     0  1.732596852E-01 -6.254140491E-01 -1.520027096E+00  1.652768672E+00  5.110000000E-04  0.00000E+00  9.000E+00
      -4     1     1     2     0   501  7.536556288E-01  1.322600143E-01 -1.536175171E+00  1.716194533E+00  0.000000000E+00  0.00000E+00  9.000E+00
      21     1     1     2   511   502 -1.599285302E+00  3.498071547E-01  1.246342546E+02  1.246450059E+02  2.336015456E-06  0.00000E+00  9.000E+00
#rwgt            1          12  -466642.89706573432                3     8576515           0
<weights>
-.11145E+08
-.96855E+07
-.11687E+08
-.17779E+08
-.62438E+07
-.55062E+07
-.19534E+08
-.11211E+08
-.11078E+08
-.10956E+08
-.11010E+08
-.11014E+08
-.11116E+08
-.10998E+08
-.11012E+08
-.11199E+08
-.11117E+08
-.11270E+08
-.11281E+08
-.11277E+08
-.11262E+08
-.11270E+08
-.11315E+08
-.11170E+08
-.11296E+08
-.11233E+08
-.11094E+08
-.11234E+08
-.11202E+08
-.11229E+08
-.11282E+08
-.11120E+08
-.11211E+08
-.11155E+08
-.11139E+08
-.11248E+08
-.11053E+08
-.10909E+08
-.11330E+08
-.11105E+08
-.11182E+08
-.11152E+08
-.11138E+08
-.11307E+08
-.10988E+08
</weights>
</event>
<event>
      6  10001 -1.11453E+07  8.94427E-01 -1.00000E+00  6.47431E-01
       2    -1     0     0   501     0  0.000000000E+00  0.000000000E+00  1.060623616E+02  1.060623616E+02  0.000000000E+00  0.00000E+00  9.000E+00
      21    -1     0     0   502   501  0.000000000E+00  0.000000000E+00 -6.128941710E-03  6.128941710E-03  0.000000000E+00  0.00000E+00  9.000E+00
      23     2     1     2     0     0 -2.892686375E-01  1.244827073E-01  9.846703434E+01  9.847276126E+01  1.014241144E+00  0.00000E+00  9.000E+00
      11     1     3     3     0     0  3.046192438E-01 -5.529123441E-02  5.933503371E+01  5.933584141E+01  5.110000000E-04  0.00000E+00  9.000E+00
     -11     1     3     3     0     0 -5.938878813E-01  1.797739417E-01  3.913200064E+01  3.913691985E+01  5.110000000E-04  0.00000E+00  9.000E+00
       2     1     1     2   502     0  2.892686375E-01 -1.244827073E-01  7.589198318E+00  7.595729287E+00  0.000000000E+00  0.00000E+00  9.000E+00
#rwgt            1          24  -5760089.7667413736                3     8582909           0
<weights>
-.11145E+08
-.12283E+08
-.98326E+07
-.14938E+08
-.78787E+07
-.91646E+07
-.13909E+08
-.11173E+08
-.11119E+08
-.10825E+08
-.10816E+08
-.10962E+08
-.11008E+08
-.10843E+08
-.10826E+08
-.11226E+08
-.11209E+08
-.11460E+08
-.11500E+08
-.11489E+08
-.11436E+08
-.11498E+08
-.11518E+08
-.11407E+08
-.11328E+08
-.11286E+08
-.11346E+08
-.11432E+08
-.11369E+08
-.11476E+08
-.11511E+08
-.11183E+08
-.11217E+08
-.11138E+08
-.11177E+08
-.11209E+08
-.11100E+08
-.11129E+08
-.11087E+08
-.11165E+08
-.11128E+08
-.11185E+08
-.11104E+08
-.11503E+08
-.10816E+08
</weights>
</event>
<event>
      7  10001  1.11453E+07  2.94606E+00 -1.00000E+00  2.94557E-01
      21    -1     0     0   502   511  0.000000000E+00  0.000000000E+00  9.639971572E+01  9.639971572E+01  0.000000000E+00  0.00000E+00  9.000E+00
       2    -1     0     0   501     0  0.000000000E+00  0.000000000E+00 -3.058568506E+01  3.058568506E+01  0.000000000E+00  0.00000E+00  9.000E+00
      23     2     1     2     0     0 -7.809701332E-01 -1.592142371E+00 -2.116145371E+01  2.139827022E+01  2.633251510E+00  0.00000E+00  9.000E+00
      11     1     3     3     0     0 -1.649536281E+00 -6.852149458E-01 -9.255924995E+00  9.426698109E+00  5.110000000E-04  0.00000E+00  9.000E+00
     -11     1     3     3     0     0  8.685661481E-01 -9.069274250E-01 -1.190552872E+01  1.197157211E+01  5.110000000E-04  0.00000E+00  9.000E+00
       2     1     1     2   502     0  1.117709807E+00 -1.334607933E+00 -9.201657133E+00  9.364878405E+00  0.000000000E+00  0.00000E+00  9.000E+00
      21     1     1     2   501   511 -3.367396738E-01  2.926750304E+00  9.617714151E+01  9.622225215E+01  2.336015456E-06  0.00000E+00  9.000E+00
#rwgt            1          17   1122138.9432708151                3     8584766           0
<weights>
0.11145E+08
0.15448E+08
0.69409E+07
0.12844E+08
0.91888E+07
0.13063E+08
0.79345E+07
0.11196E+08
0.11091E+08
0.10895E+08
0.10930E+08
0.11156E+08
0.10843E+08
0.10917E+08
0.10926E+08
0.10944E+08
0.11542E+08
0.11147E+08
0.11698E+08
0.11717E+08
0.11122E+08
0.11391E+08
0.11399E+08
0.11359E+08
0.11262E+08
0.11274E+08
0.11101E+08
0.11654E+08
0.10837E+08
0.11395E+08
0.11335E+08
0.11184E+08
0.11177E+08
0.11006E+08
0.11369E+08
0.10927E+08
0.11372E+08
0.11009E+08
0.11197E+08
0.11086E+08
0.11187E+08
0.11298E+08
0.10982E+08
0.11391E+08
0.10917E+08
</weights>
</event>
<event>
      7  10001  1.11453E+07  2.39040E+00 -1.00000E+00  3.23804E-01
      21    -1     0     0   502   501  0.000000000E+00  0.000000000E+00  3.619804010E-02  3.619804010E-02  0.000000000E+00  0.00000E+00  9.000E+00
      -2    -1     0     0     0   502  0.000000000E+00  0.000000000E+00 -2.941059819E+02  2.941059819E+02  0.000000000E+00  0.00000E+00  9.000E+00
      23     2     1     2     0     0 -1.207884929E+00  4.830700004E-01 -5.030773890E+01  5.037565372E+01  2.268380934E+00  0.00000E+00  9.000E+00
      11     1     3     3     0     0 -2.515788539E-01  1.264917619E+00 -3.220983415E+01  3.223564370E+01  5.110000000E-04  0.00000E+00  9.000E+00
     -11     1     3     3     0     0 -9.563060752E-01 -7.818476187E-01 -1.809790475E+01  1.814001003E+01  5.110000000E-04  0.00000E+00  9.000E+00
      -2     1     1     2     0   511  3.261306944E-02  1.395754021E-01 -1.853167158E+01  1.853222589E+01  0.000000000E+00  0.00000E+00  9.000E+00
      21     1     1     2   511   501  1.175271860E+00 -6.226454025E-01 -2.252303733E+02  2.252343003E+02  4.672030912E-06  0.00000E+00  9.000E+00
#rwgt            1          14   131835.20674356795                3     8588476           0
<weights>
0.11145E+08
0.12400E+08
0.97054E+07
0.13088E+08
0.91721E+07
0.10558E+08
0.11779E+08
0.11004E+08
0.11278E+08
0.11342E+08
0.11308E+08
0.11132E+08
0.11242E+08
0.11307E+08
0.11316E+08
0.11032E+08
0.11202E+08
0.11059E+08
0.10903E+08
0.10880E+08
0.11079E+08
0.10962E+08
0.10991E+08
0.11099E+08
0.11002E+08
0.10983E+08
0.11188E+08
0.10974E+08
0.10973E+08
0.11001E+08
0.10998E+08
0.11294E+08
0.10938E+08
0.11341E+08
0.10954E+08
0.11270E+08
0.11008E+08
0.11418E+08
0.10852E+08
0.11146E+08
0.11124E+08
0.11347E+08
0.10928E+08
0.10949E+08
0.11332E+08
</weights>
</event>
<event>
      7  10001  1.11453E+07  1.13655E+00 -1.00000E+00  5.15417E-01
       4    -1     0     0   501     0  0.000000000E+00  0.000000000E+00  1.881812222E+00  1.881812222E+00  0.000000000E+00  0.00000E+00  9.000E+00
      21    -1     0     0   502   501  0.000000000E+00  0.000000000E+00 -6.891181446E+00  6.891181446E+00  0.000000000E+00  0.00000E+00  9.000E+00
      23     2     1     2     0     0 -1.424951763E-01  8.911113654E-01  1.411988181E+00  2.244834815E+00  1.493716300E+00  0.00000E+00  9.000E+00
      11     1     3     3     0     0 -4.882682310E-01  1.019558991E+00  4.538522996E-01  1.218149651E+00  5.110000000E-04  0.00000E+00  9.000E+00
     -11     1     3     3     0     0  3.457730546E-01 -1.284476258E-01  9.581358810E-01  1.026685164E+00  5.110000000E-04  0.00000E+00  9.000E+00
       4     1     1     2   512     0 -1.977909525E-01 -5.066763623E-01 -1.856975431E+00  1.934993527E+00  0.000000000E+00  0.00000E+00  9.000E+00
      21     1     1     2   502   512  3.402861288E-01 -3.844350031E-01 -4.564381973E+00  4.593165326E+00  2.795705652E-07  0.00000E+00  9.000E+00
#rwgt            2         308   1925468.9215035685                3     8606215           0
<weights>
0.11145E+08
0.11326E+08
0.10647E+08
0.13765E+08
0.85307E+07
0.91702E+07
0.13910E+08
0.11208E+08
0.11080E+08
0.10888E+08
0.10911E+08
0.10983E+08
0.11067E+08
0.10918E+08
0.10917E+08
0.11216E+08
0.11164E+08
0.11374E+08
0.11379E+08
0.11376E+08
0.11356E+08
0.11387E+08
0.11420E+08
0.11249E+08
0.11338E+08
0.11289E+08
0.11091E+08
0.11344E+08
0.11276E+08
0.11355E+08
0.11399E+08
0.11153E+08
0.11213E+08
0.11142E+08
0.11162E+08
0.11248E+08
0.11056E+08
0.11014E+08
0.11203E+08
0.11136E+08
0.11154E+08
0.11164E+08
0.11126E+08
0.11408E+08
0.10899E+08
</weights>
</event>
<event>
      6  10001 -1.11453E+07  8.94427E-01 -1.00000E+00  1.48716E-01
      21    -1     0     0   502   501  0.000000000E+00  0.000000000E+00  1.661433595E-02  1.661433595E-02  0.000000000E+00  0.00000E+00  9.000E+00
      -2    -1     0     0     0   502  0.000000000E+00  0.000000000E+00 -7.204539282E+01  7.204539282E+01  0.000000000E+00  0.00000E+00  9.000E+00
      23     2     1     2     0     0  1.231096882E-01 -2.788414837E-01 -6.547865428E+01  6.550479467E+01  1.825116205E+00  0.00000E+00  9.000E+00
      11     1     3     3     0     0  2.347167566E-01  2.373876059E-01 -5.995898526E+01  5.995991460E+01  5.110000000E-04  0.00000E+00  9.000E+00
     -11     1     3     3     0     0 -1.116070684E-01 -5.162290896E-01 -5.519669025E+00  5.544880072E+00  5.110000000E-04  0.00000E+00  9.000E+00
      -2     1     1     2     0   501 -1.231096882E-01  2.788414837E-01 -6.550124201E+00  6.557212488E+00  0.000000000E+00  0.00000E+00  9.000E+00
#rwgt            1          14  -5089973.9763174709                3     8606618           0
<weights>
-.11145E+08
-.12162E+08
-.99967E+07
-.14781E+08
-.80099E+07
-.91702E+07
-.13910E+08
-.11201E+08
-.11090E+08
-.11092E+08
-.11148E+08
-.11072E+08
-.11138E+08
-.11148E+08
-.11151E+08
-.11072E+08
-.11198E+08
-.11173E+08
-.11056E+08
-.11031E+08
-.11189E+08
-.11122E+08
-.11118E+08
-.11158E+08
-.11122E+08
-.11177E+08
-.11100E+08
-.11129E+08
-.11017E+08
-.11096E+08
-.11125E+08
-.11105E+08
-.11179E+08
-.11274E+08
-.11017E+08
-.11055E+08
-.11221E+08
-.10974E+08
-.11349E+08
-.11092E+08
-.11181E+08
-.11259E+08
-.11024E+08
-.11146E+08
-.11132E+08
</weights>
</event>
<event>
      6  10001 -1.11453E+07  8.94427E-01 -1.00000E+00  3.87157E-01
       2    -1     0     0   501     0  0.000000000E+00  0.000000000E+00  2.444643895E+02  2.444643895E+02  0.000000000E+00  0.00000E+00  9.000E+00
      21    -1     0     0   502   501  0.000000000E+00  0.000000000E+00 -8.357148561E-03  8.357148561E-03  0.000000000E+00  0.00000E+00  9.000E+00
      23     2     1     2     0     0  7.532795338E-01 -8.464244651E-01  1.559572238E+02  1.559666848E+02  1.291222511E+00  0.00000E+00  9.000E+00
      11     1     3     3     0     0  1.078733445E+00 -6.055848691E-01  9.402931358E+01  9.403745111E+01  5.110000000E-04  0.00000E+00  9.000E+00
     -11     1     3     3     0     0 -3.254539116E-01 -2.408395961E-01  6.192791017E+01  6.192923367E+01  5.110000000E-04  0.00000E+00  9.000E+00
       2     1     1     2   502     0 -7.532795338E-01  8.464244651E-01  8.849880858E+01  8.850606185E+01  0.000000000E+00  0.00000E+00  9.000E+00
#rwgt            1          24  -14080514.747883312                3     8608562           0
<weights>
-.11145E+08
-.12487E+08
-.96074E+07
-.15184E+08
-.76982E+07
-.91655E+07
-.13909E+08
-.11178E+08
-.11113E+08
-.10837E+08
-.10835E+08
-.10967E+08
-.11018E+08
-.10857E+08
-.10844E+08
-.11224E+08
-.11200E+08
-.11442E+08
-.11479E+08
-.11468E+08
-.11420E+08
-.11476E+08
-.11499E+08
-.11380E+08
-.11328E+08
-.11282E+08
-.11309E+08
-.11413E+08
-.11353E+08
-.11451E+08
-.11489E+08
-.11176E+08
-.11216E+08
-.11140E+08
-.11173E+08
-.11214E+08
-.11094E+08
-.11105E+08
-.11111E+08
-.11160E+08
-.11133E+08
-.11182E+08
-.11107E+08
-.11484E+08
-.10832E+08
</weights>
</event>
<event>
      7  10001  1.11453E+07  8.94427E-01 -1.00000E+00  6.07649E-01
      21    -1     0     0   501   511  0.000000000E+00  0.000000000E+00  7.600878542E+01  7.600878542E+01  0.000000000E+00  0.00000E+00  9.000E+00
      -2    -1     0     0     0   502  0.000000000E+00  0.000000000E+00 -2.537701365E-01  2.537701365E-01  0.000000000E+00  0.00000E+00  9.000E+00
      23     2     1     2     0     0  1.428074124E+00  8.439082331E-01  8.094659020E+00  8.551570552E+00  2.203242485E+00  0.00000E+00  9.000E+00
      11     1     3     3     0     0  1.840839141E+00  1.042401227E+00  5.088607114E+00  5.510826769E+00  5.110000000E-04  0.00000E+00  9.000E+00
     -11     1     3     3     0     0 -4.127650176E-01 -1.984929934E-01  3.006051906E+00  3.040743783E+00  5.110000000E-04  0.00000E+00  9.000E+00
      21     1     1     2   501   502 -1.563083538E+00 -2.640861242E-01  6.182892636E+01  6.184924500E+01  1.168007728E-06  0.00000E+00  9.000E+00
      -2     1     1     2     0   511  1.350094140E-01 -5.798221089E-01  5.831429895E+00  5.861740001E+00  0.000000000E+00  0.00000E+00  9.000E+00
#rwgt            2         161   259592.92848243998                3     8610706           0
<weights>
0.11145E+08
0.10721E+08
0.11451E+08
0.13030E+08
0.91748E+07
0.91702E+07
0.13910E+08
0.11066E+08
0.11248E+08
0.10826E+08
0.10804E+08
0.10970E+08
0.10989E+08
0.10840E+08
0.10816E+08
0.11203E+08
0.11250E+08
0.11480E+08
0.11485E+08
0.11473E+08
0.11458E+08
0.11513E+08
0.11520E+08
0.11415E+08
0.11312E+08
0.11325E+08
0.11209E+08
0.11462E+08
0.11345E+08
0.11495E+08
0.11516E+08
0.11169E+08
0.11234E+08
0.11139E+08
0.11179E+08
0.11118E+08
0.11201E+08
0.11148E+08
0.11070E+08
0.11167E+08
0.11126E+08
0.11200E+08
0.11088E+08
0.11510E+08
0.10811E+08
</weights>
</event>
<event>
      6  10001 -1.11453E+07  8.94427E-01 -1.00000E+00  4.27746E-01
       4    -1     0     0   501     0  0.000000000E+00  0.000000000E+00  1.377362898E+00  1.377362898E+00  0.000000000E+00  0.00000E+00  9.000E+00
      21    -1     0     0   502   501  0.000000000E+00  0.000000000E+00 -4.060272185E-01  4.060272185E-01  0.000000000E+00  0.00000E+00  9.000E+00
      23     2     1     2     0     0  1.347356420E-01 -3.095886508E-01  5.913510909E-01  1.275072191E+00  1.078013986E+00  0.00000E+00  9.000E+00
      11     1     3     3     0     0 -1.508152667E-01 -3.613643781E-01  8.179699007E-01  9.068651928E-01  5.110000000E-04  0.00000E+00  9.000E+00
     -11     1     3     3     0     0  2.855509087E-01  5.177572733E-02 -2.266188098E-01  3.682069981E-01  5.110000000E-04  0.00000E+00  9.000E+00
       4     1     1     2   502     0 -1.347356420E-01  3.095886508E-01  3.799845887E-01  5.083179257E-01  0.000000000E+00  0.00000E+00  9.000E+00
#rwgt            1          28  -601513.02073033166                3     8611565           0
<weights>
-.11145E+08
-.10788E+08
-.10669E+08
-.18171E+08
-.59320E+07
-.60857E+07
-.18645E+08
-.11214E+08
-.11075E+08
-.11048E+08
-.11110E+08
-.11056E+08
-.11166E+08
-.11084E+08
-.11109E+08
-.11180E+08
-.11084E+08
-.11172E+08
-.11174E+08
-.11175E+08
-.11170E+08
-.11156E+08
-.11211E+08
-.11071E+08
-.11254E+08
-.11185E+08
-.11001E+08
-.11136E+08
-.11129E+08
-.11117E+08
-.11168E+08
-.11100E+08
-.11196E+08
-.11157E+08
-.11128E+08
-.11242E+08
-.11054E+08
-.10872E+08
-.11372E+08
-.11087E+08
-.11197E+08
-.11139E+08
-.11152E+08
-.11200E+08
-.11086E+08
</weights>
</event>
<event>
      7  10001  1.11453E+07  1.91756E+00 -1.00000E+00  3.61965E-01
       4    -1     0     0   501     0  0.000000000E+00  0.000000000E+00  1.165456031E+01  1.165456031E+01  0.000000000E+00  0.00000E+00  9.000E+00
      -4    -1     0     0     0   502  0.000000000E+00  0.000000000E+00 -1.900695404E-01  1.900695404E-01  0.000000000E+00  0.00000E+00  9.000E+00
      23     2     1     2     0     0  1.072165296E-01 -7.547643488E-01  4.934635543E+00  5.200627966E+00  1.454214115E+00  0.00000E+00  9.000E+00
      11     1     3     3     0     0  1.687405130E-01  4.214136871E-01  1.646008853E+00  1.707456664E+00  5.110000000E-04  0.00000E+00  9.000E+00
     -11     1     3     3     0     0 -6.152398348E-02 -1.176178036E+00  3.288626690E+00  3.493171301E+00  5.110000000E-04  0.00000E+00  9.000E+00
       3     1     1     2   501     0  1.595222733E-01 -1.879623950E-01  1.302675228E+00  1.325797860E+00  0.000000000E+00  0.00000E+00  9.000E+00
      -3     1     1     2     0   502 -2.667388028E-01  9.427267438E-01  5.227180001E+00  5.318204026E+00  0.000000000E+00  0.00000E+00  9.000E+00
#rwgt            1          27   192252.75650245338                3     8640663           0
<weights>
0.11145E+08
0.13421E+08
0.90035E+07
0.12682E+08
0.91639E+07
0.11417E+08
0.10460E+08
0.11175E+08
0.11113E+08
0.10767E+08
0.10732E+08
0.10935E+08
0.10968E+08
0.10775E+08
0.10746E+08
0.11240E+08
0.11248E+08
0.11548E+08
0.11578E+08
0.11568E+08
0.11517E+08
0.11598E+08
0.11605E+08
0.11467E+08
0.11363E+08
0.11333E+08
0.11299E+08
0.11526E+08
0.11431E+08
0.11582E+08
0.11609E+08
0.11211E+08
0.11218E+08
0.11128E+08
0.11196E+08
0.11212E+08
0.11100E+08
0.11224E+08
0.10988E+08
0.11191E+08
0.11106E+08
0.11193E+08
0.11095E+08
0.11588E+08
0.10741E+08
</weights>
</event>
<event>
      7  10001  1.11453E+07  1.55743E+00 -1.00000E+00  4.07678E-01
      21    -1     0     0   502   501  0.000000000E+00  0.000000000E+00  4.040641760E-01  4.040641760E-01  0.000000000E+00  0.00000E+00  9.000E+00
       4    -1     0     0   501     0  0.000000000E+00  0.000000000E+00 -1.039202203E+01  1.039202203E+01  0.000000000E+00  0.00000E+00  9.000E+00
      23     2     1     2     0     0  3.684401658E-01 -8.004803967E-01 -7.023157810E+00  7.516354078E+00  2.528698475E+00  0.00000E+00  9.000E+00
      11     1     3     3     0     0  7.908987280E-01  2.073240848E-01 -5.873778882E+00  5.930411680E+00  5.110000000E-04  0.00000E+00  9.000E+00
     -11     1     3     3     0     0 -4.224585622E-01 -1.007804481E+00 -1.149378928E+00  1.585942399E+00  5.110000000E-04  0.00000E+00  9.000E+00
       4     1     1     2   511     0 -3.224440871E-01  7.318174351E-03 -2.018624564E+00  2.044228186E+00  0.000000000E+00  0.00000E+00  9.000E+00
      21     1     1     2   502   511 -4.599607875E-02  7.931622224E-01 -9.461754760E-01  1.235503938E+00  1.490116119E-08  0.00000E+00  9.000E+00
#rwgt            2         195   8467985.4821669906                3     8641754           0
<weights>
0.11145E+08
0.11776E+08
0.10196E+08
0.14312E+08
0.81695E+07
0.91702E+07
0.13910E+08
0.11230E+08
0.11058E+08
0.10824E+08
0.10858E+08
0.10943E+08
0.11055E+08
0.10857E+08
0.10863E+08
0.11215E+08
0.11199E+08
0.11425E+08
0.11448E+08
0.11445E+08
0.11404E+08
0.11441E+08
0.11495E+08
0.11260E+08
0.11408E+08
0.11377E+08
0.11040E+08
0.11411E+08
0.11283E+08
0.11400E+08
0.11456E+08
0.11148E+08
0.11235E+08
0.11145E+08
0.11161E+08
0.11291E+08
0.11017E+08
0.10959E+08
0.11231E+08
0.11140E+08
0.11152E+08
0.11158E+08
0.11133E+08
0.11471E+08
0.10840E+08
</weights>
</event>
<event>
      7  10001  1.11453E+07  2.21629E+00 -1.00000E+00  3.35914E-01
      21    -1     0     0   512   501  0.000000000E+00  0.000000000E+00  1.786491484E+01  1.786491484E+01  0.000000000E+00  0.00000E+00  9.000E+00
       1    -1     0     0   501     0  0.000000000E+00  0.000000000E+00 -1.519995983E+00  1.519995983E+00  0.000000000E+00  0.00000E+00  9.000E+00
      23     2     1     2     0     0 -9.999906399E-01 -5.064802880E-01  2.147862216E-01  1.717601314E+00  1.283556618E+00  0.00000E+00  9.000E+00
      11     1     3     3     0     0 -1.248140851E+00 -2.078344952E-01 -1.690816037E-02  1.265439413E+00  5.110000000E-04  0.00000E+00  9.000E+00
     -11     1     3     3     0     0  2.481502112E-01 -2.986457928E-01  2.316943820E-01  4.521619010E-01  5.110000000E-04  0.00000E+00  9.000E+00
       1     1     1     2   502     0 -9.219856602E-01  1.610093200E+00  5.568989861E-01  1.937161365E+00  0.000000000E+00  0.00000E+00  9.000E+00
      21     1     1     2   512   502  1.921976300E+00 -1.103612912E+00  1.557323365E+01  1.573014815E+01  3.371747881E-07  0.00000E+00  9.000E+00
#rwgt            1          16   143698.51743378918                3     8649377           0
<weights>
0.11145E+08
0.14306E+08
0.82669E+07
0.11676E+08
0.99291E+07
0.12825E+08
0.82994E+07
0.10806E+08
0.11515E+08
0.10820E+08
0.10732E+08
0.10937E+08
0.10969E+08
0.10809E+08
0.10759E+08
0.11268E+08
0.11223E+08
0.11695E+08
0.11337E+08
0.11288E+08
0.11695E+08
0.11576E+08
0.11578E+08
0.11467E+08
0.11320E+08
0.11517E+08
0.11034E+08
0.11470E+08
0.11436E+08
0.11572E+08
0.11586E+08
0.11164E+08
0.11261E+08
0.11302E+08
0.11015E+08
0.10825E+08
0.11513E+08
0.11274E+08
0.10940E+08
0.11165E+08
0.11123E+08
0.11265E+08
0.11019E+08
0.11557E+08
0.10773E+08
</weights>
</event>
<event>
      6  10001 -1.11453E+07  8.94427E-01 -1.00000E+00  2.50620E-01
       2    -1     0     0   501     0  0.000000000E+00  0.000000000E+00  1.646716614E+02  1.646716614E+02  0.000000000E+00  0.00000E+00  9.000E+00
      -2    -1     0     0     0   502  0.000000000E+00  0.000000000E+00 -3.853979705E-03  3.853979705E-03  0.000000000E+00  0.00000E+00  9.000E+00
      23     2     1     2     0     0 -1.882146959E-01 -1.737234366E-01  1.528777463E+02  1.528826724E+02  1.200249206E+00  0.00000E+00  9.000E+00
      11     1     3     3     0     0  1.323958188E-02 -2.726666525E-01  1.474907227E+02  1.474909754E+02  5.110000000E-04  0.00000E+00  9.000E+00
     -11     1     3     3     0     0 -2.014542778E-01  9.894321593E-02  5.387023580E+00  5.391697034E+00  5.110000000E-04  0.00000E+00  9.000E+00
      21     1     1     2   501   502  1.882146959E-01  1.737234366E-01  1.179006110E+01  1.179284297E+01  2.920019320E-07  0.00000E+00  9.000E+00
#rwgt            1          23  -161600.65956401773                3     8654022           0
<weights>
-.11145E+08
-.13278E+08
-.88349E+07
-.16145E+08
-.70792E+07
-.91657E+07
-.13909E+08
-.11162E+08
-.11132E+08
-.10821E+08
-.10809E+08
-.10961E+08
-.11003E+08
-.10838E+08
-.10820E+08
-.11225E+08
-.11216E+08
-.11468E+08
-.11505E+08
-.11494E+08
-.11444E+08
-.11507E+08
-.11525E+08
-.11414E+08
-.11329E+08
-.11292E+08
-.11333E+08
-.11441E+08
-.11372E+08
-.11485E+08
-.11518E+08
-.11184E+08
-.11218E+08
-.11137E+08
-.11179E+08
-.11201E+08
-.11109E+08
-.11138E+08
-.11078E+08
-.11168E+08
-.11126E+08
-.11187E+08
-.11102E+08
-.11510E+08
-.10810E+08
</weights>
</event>
<event>
      7  10001  1.11453E+07  9.78634E-01 -1.00000E+00  5.71003E-01
      21    -1     0     0   501   511  0.000000000E+00  0.000000000E+00  1.560229637E+01  1.560229637E+01  0.000000000E+00  0.00000E+00  9.000E+00
      -3    -1     0     0     0   502  0.000000000E+00  0.000000000E+00 -2.892240137E-01  2.892240137E-01  0.000000000E+00  0.00000E+00  9.000E+00
      23     2     1     2     0     0  7.155845747E-02  3.526372594E-01  9.909663773E+00  9.995429030E+00  1.256062000E+00  0.00000E+00  9.000E+00
      11     1     3     3     0     0  2.244121205E-01 -3.742814509E-01  1.813884830E+00  1.865643546E+00  5.110000000E-04  0.00000E+00  9.000E+00
     -11     1     3     3     0     0 -1.528536630E-01  7.269187103E-01  8.095778943E+00  8.129785484E+00  5.110000000E-04  0.00000E+00  9.000E+00
      21     1     1     2   501   502 -1.049820180E+00 -3.256427102E-01  1.428235881E+00  1.802227321E+00  2.107342426E-08  0.00000E+00  9.000E+00
      -3     1     1     2     0   511  9.782617228E-01 -2.699454921E-02  3.975172702E+00  4.093864032E+00  0.000000000E+00  0.00000E+00  9.000E+00
#rwgt            1          25   65472.434780037758                3     8655795           0
<weights>
0.11145E+08
0.12572E+08
0.97616E+07
0.11561E+08
0.99511E+07
0.11535E+08
0.10280E+08
0.11170E+08
0.11118E+08
0.10776E+08
0.10753E+08
0.10986E+08
0.10923E+08
0.10785E+08
0.10765E+08
0.11195E+08
0.11254E+08
0.11332E+08
0.12096E+08
0.11948E+08
0.11332E+08
0.11562E+08
0.11617E+08
0.12474E+08
0.11012E+08
0.10864E+08
0.15408E+08
0.11351E+08
0.11681E+08
0.11548E+08
0.11609E+08
0.11231E+08
0.11194E+08
0.11140E+08
0.11183E+08
0.11208E+08
0.11103E+08
0.11228E+08
0.10986E+08
0.11194E+08
0.11102E+08
0.11207E+08
0.11081E+08
0.11572E+08
0.10756E+08
</weights>
</event>
<event>
      7  10001 -1.11453E+07  1.57439E+00 -1.00000E+00  4.05004E-01
      21    -1     0     0   502   511  0.000000000E+00  0.000000000E+00  1.039698693E+03  1.039698693E+03  0.000000000E+00  0.00000E+00  9.000E+00
       4    -1     0     0   501     0  0.000000000E+00  0.000000000E+00 -1.001369589E+01  1.001369589E+01  0.000000000E+00  0.00000E+00  9.000E+00
      23     2     1     2     0     0 -4.081523712E-02  6.377990143E-01 -6.847931673E+00  7.152092542E+00  1.962092267E+00  0.00000E+00  9.000E+00
      11     1     3     3     0     0 -6.046394407E-01  1.098960183E+00 -3.304005110E+00  3.534084374E+00  5.110000000E-04  0.00000E+00  9.000E+00
     -11     1     3     3     0     0  5.638242036E-01 -4.611611687E-01 -3.543926563E+00  3.618008167E+00  5.110000000E-04  0.00000E+00  9.000E+00
       4     1     1     2   502     0  5.368226165E-01  8.564199293E-01 -2.928321287E+00  3.097853963E+00  0.000000000E+00  0.00000E+00  9.000E+00
      21     1     1     2   501   511 -4.960073794E-01 -1.494218944E+00  1.039461250E+03  1.039462442E+03  2.157918644E-05  0.00000E+00  9.000E+00
#rwgt            1          19  -244891.71312457349                3     8658855           0
<weights>
-.11145E+08
-.42364E+07
-.16373E+08
-.19327E+08
-.52941E+07
-.27611E+06
-.27563E+08
-.11180E+08
-.11116E+08
-.11288E+08
-.11410E+08
-.11165E+08
-.11314E+08
-.11368E+08
-.11405E+08
-.11142E+08
-.10921E+08
-.10861E+08
-.10831E+08
-.10822E+08
-.10887E+08
-.10814E+08
-.10828E+08
-.10916E+08
-.11028E+08
-.10928E+08
-.11176E+08
-.10797E+08
-.10941E+08
-.10764E+08
-.10816E+08
-.11027E+08
-.11168E+08
-.11185E+08
-.11075E+08
-.11189E+08
-.11099E+08
-.10719E+08
-.11709E+08
-.10993E+08
-.11279E+08
-.11112E+08
-.11180E+08
-.10879E+08
-.11367E+08
</weights>
</event>
<event>
      6  10001 -1.11453E+07  8.94427E-01 -1.00000E+00  5.50403E-01
      21    -1     0     0   502   501  0.000000000E+00  0.000000000E+00  4.800843055E-03  4.800843055E-03  0.000000000E+00  0.00000E+00  9.000E+00
      -4    -1     0     0     0   502  0.000000000E+00  0.000000000E+00 -2.069703347E+02  2.069703347E+02  0.000000000E+00  0.00000E+00  9.000E+00
      23     2     1     2     0     0 -4.622947831E-01  2.027512109E-02 -1.071902759E+02  1.071988045E+02  1.270559045E+00  0.00000E+00  9.000E+00
      11     1     3     3     0     0 -6.340437767E-01 -4.975860366E-01 -6.231522185E+01  6.232043387E+01  5.110000000E-04  0.00000E+00  9.000E+00
     -11     1     3     3     0     0  1.717489937E-01  5.178611577E-01 -4.487505404E+01  4.487837066E+01  5.110000000E-04  0.00000E+00  9.000E+00
      -4     1     1     2     0   501  4.622947831E-01 -2.027512109E-02 -9.977525796E+01  9.977633100E+01  0.000000000E+00  0.00000E+00  9.000E+00
#rwgt            1          12  -334432.54335920385                3     8663849           0
<weights>
-.11145E+08
-.12551E+08
-.95497E+07
-.15254E+08
-.76517E+07
-.91702E+07
-.13910E+08
-.10965E+08
-.11320E+08
-.11668E+08
-.11450E+08
-.11166E+08
-.11593E+08
-.11573E+08
-.11537E+08
-.11066E+08
-.11052E+08
-.10776E+08
-.10693E+08
-.10698E+08
-.10804E+08
-.10746E+08
-.10643E+08
-.11116E+08
-.10623E+08
-.10785E+08
-.11288E+08
-.10852E+08
-.10902E+08
-.10825E+08
-.10722E+08
-.11222E+08
-.10937E+08
-.11067E+08
-.11217E+08
-.11012E+08
-.11256E+08
-.11489E+08
-.10828E+08
-.10938E+08
-.11341E+08
-.11014E+08
-.11285E+08
-.10694E+08
-.11565E+08
</weights>
</event>
<event>
      6  10001 -1.11453E+07  8.94427E-01 -1.00000E+00  1.50462E-01
       4    -1     0     0   501     0  0.000000000E+00  0.000000000E+00  8.470537789E+01  8.470537789E+01  0.000000000E+00  0.00000E+00  9.000E+00
      21    -1     0     0   502   501  0.000000000E+00  0.000000000E+00 -1.757384282E-02  1.757384282E-02  0.000000000E+00  0.00000E+00  9.000E+00
      23     2     1     2     0     0 -1.786230035E-01 -2.744747899E-01  6.883539802E+01  6.886716354E+01  2.065659681E+00  0.00000E+00  9.000E+00
      11     1     3     3     0     0 -2.543799628E-01  8.424165306E-01  2.061558491E+01  2.063435766E+01  5.110000000E-04  0.00000E+00  9.000E+00
     -11     1     3     3     0     0  7.575695922E-02 -1.116891320E+00  4.821981312E+01  4.823280588E+01  5.110000000E-04  0.00000E+00  9.000E+00
       4     1     1     2   502     0  1.786230035E-01  2.744747899E-01  1.585240602E+01  1.585578820E+01  0.000000000E+00  0.00000E+00  9.000E+00
#rwgt            1          28  -1243340.3571357746                3     8666919           0
<weights>
-.11145E+08
-.12816E+08
-.92955E+07
-.15586E+08
-.74483E+07
-.91649E+07
-.13909E+08
-.11174E+08
-.11117E+08
-.10829E+08
-.10822E+08
-.10964E+08
-.11011E+08
-.10848E+08
-.10832E+08
-.11225E+08
-.11206E+08
-.11454E+08
-.11494E+08
-.11482E+08
-.11431E+08
-.11492E+08
-.11512E+08
-.11400E+08
-.11327E+08
-.11284E+08
-.11335E+08
-.11426E+08
-.11365E+08
-.11468E+08
-.11504E+08
-.11181E+08
-.11217E+08
-.11138E+08
-.11176E+08
-.11210E+08
-.11099E+08
-.11122E+08
-.11094E+08
-.11164E+08
-.11130E+08
-.11184E+08
-.11105E+08
-.11497E+08
-.10821E+08
</weights>
</event>
<event>
      6  10001  1.11453E+07  8.94427E-01 -1.00000E+00  6.03851E-01
      21    -1     0     0   502   501  0.000000000E+00  0.000000000E+00  3.722316591E+01  3.722316591E+01  0.000000000E+00  0.00000E+00  9.000E+00
      -4    -1     0     0     0   502  0.000000000E+00  0.000000000E+00 -5.312087914E-02  5.312087914E-02  0.000000000E+00  0.00000E+00  9.000E+00
      23     2     1     2     0     0  5.616210960E-01  9.721657184E-01  1.483162364E+01  1.490966893E+01  1.029875341E+00  0.00000E+00  9.000E+00
      11     1     3     3     0     0  8.488026432E-01  8.178528621E-01  1.054708840E+01  1.061274815E+01  5.110000000E-04  0.00000E+00  9.000E+00
     -11     1     3     3     0     0 -2.871815471E-01  1.543128563E-01  4.284535237E+00  4.296920776E+00  5.110000000E-04  0.00000E+00  9.000E+00
      -4     1     1     2     0   501 -5.616210960E-01 -9.721657184E-01  2.233842139E+01  2.236661786E+01  0.000000000E+00  0.00000E+00  9.000E+00
#rwgt            1          12   665329.44201669632                3     8670185           0
<weights>
0.11145E+08
0.12927E+08
0.93475E+07
0.12700E+08
0.93485E+07
0.11155E+08
0.10862E+08
0.11155E+08
0.11137E+08
0.10768E+08
0.10730E+08
0.10939E+08
0.10962E+08
0.10775E+08
0.10744E+08
0.11236E+08
0.11253E+08
0.11544E+08
0.11597E+08
0.11582E+08
0.11514E+08
0.11600E+08
0.11607E+08
0.11513E+08
0.11342E+08
0.11315E+08
0.11443E+08
0.11523E+08
0.11442E+08
0.11587E+08
0.11612E+08
0.11212E+08
0.11219E+08
0.11130E+08
0.11195E+08
0.11193E+08
0.11120E+08
0.11236E+08
0.10979E+08
0.11193E+08
0.11105E+08
0.11197E+08
0.11091E+08
0.11589E+08
0.10741E+08
</weights>
</event>
<event>
      6  10001 -1.11453E+07  8.94427E-01 -1.00000E+00  6.55335E-01
       2    -1     0     0   501     0  0.000000000E+00  0.000000000E+00  1.568504903E+02  1.568504903E+02  0.000000000E+00  0.00000E+00  9.000E+00
      -2    -1     0     0     0   502  0.000000000E+00  0.000000000E+00 -1.498485678E-02  1.498485678E-02  0.000000000E+00  0.00000E+00  9.000E+00
      23     2     1     2     0     0 -2.242210407E-01  3.389100130E-01  1.502018289E+02  1.502193636E+02  2.258903263E+00  0.00000E+00  9.000E+00
      11     1     3     3     0     0  9.242621623E-01  4.137487847E-01  4.581351566E+01  4.582470585E+01  5.110000000E-04  0.00000E+00  9.000E+00
     -11     1     3     3     0     0 -1.148483203E+00 -7.483877166E-02  1.043883133E+02  1.043946577E+02  5.110000000E-04  0.00000E+00  9.000E+00
      21     1     1     2   501   502  2.242210407E-01 -3.389100130E-01  6.633676486E+00  6.646111555E+00  1.685873940E-07  0.00000E+00  9.000E+00
#rwgt            1          23  -2960147.0446710745                3     8679550           0
<weights>
-.11145E+08
-.12564E+08
-.95354E+07
-.15282E+08
-.76406E+07
-.91636E+07
-.13909E+08
-.11137E+08
-.11167E+08
-.10816E+08
-.10799E+08
-.10961E+08
-.10995E+08
-.10831E+08
-.10810E+08
-.11222E+08
-.11226E+08
-.11477E+08
-.11517E+08
-.11504E+08
-.11453E+08
-.11519E+08
-.11533E+08
-.11436E+08
-.11323E+08
-.11295E+08
-.11365E+08
-.11453E+08
-.11379E+08
-.11499E+08
-.11529E+08
-.11185E+08
-.11221E+08
-.11137E+08
-.11181E+08
-.11184E+08
-.11129E+08
-.11151E+08
-.11065E+08
-.11170E+08
-.11124E+08
-.11190E+08
-.11098E+08
-.11519E+08
-.10802E+08
</weights>
</event>
<event>
      6  10001 -1.11453E+07  8.94427E-01 -1.00000E+00  3.41144E-01
      21    -1     0     0   502   501  0.000000000E+00  0.000000000E+00  1.481848549E-02  1.481848549E-02  0.000000000E+00  0.00000E+00  9.000E+00
       4    -1     0     0   501     0  0.000000000E+00  0.000000000E+00 -1.498632457E+02  1.498632457E+02  0.000000000E+00  0.00000E+00  9.000E+00
      23     2     1     2     0     0  5.402811521E-01 -1.676234416E-01 -1.427744265E+02  1.427814814E+02  1.301753663E+00  0.00000E+00  9.000E+00
      11     1     3     3     0     0  9.515743863E-01  6.433294629E-03 -1.078824013E+02  1.078865981E+02  5.110000000E-04  0.00000E+00  9.000E+00
     -11     1     3     3     0     0 -4.112932342E-01 -1.740567362E-01 -3.489202520E+01  3.489488331E+01  5.110000000E-04  0.00000E+00  9.000E+00
       4     1     1     2   502     0 -5.402811521E-01  1.676234416E-01 -7.074000685E+00  7.096582772E+00  0.000000000E+00  0.00000E+00  9.000E+00
#rwgt            1          19  -2203473.1169977169                3     8679716           0
<weights>
-.11145E+08
-.12332E+08
-.97558E+07
-.14988E+08
-.78169E+07
-.91702E+07
-.13910E+08
-.11062E+08
-.11224E+08
-.11433E+08
-.11347E+08
-.11104E+08
-.11471E+08
-.11436E+08
-.11405E+08
-.11107E+08
-.11028E+08
-.10899E+08
-.10794E+08
-.10794E+08
-.10921E+08
-.10873E+08
-.10768E+08
-.11105E+08
-.10797E+08
-.10904E+08
-.11233E+08
-.10934E+08
-.10952E+08
-.10894E+08
-.10850E+08
-.11156E+08
-.11044E+08
-.11111E+08
-.11171E+08
-.11118E+08
-.11161E+08
-.11180E+08
-.11166E+08
-.10961E+08
-.11318E+08
-.11044E+08
-.11253E+08
-.10857E+08
-.11399E+08
</weights>
</event>
<event>
      6  10001 -1.11453E+07  8.94427E-01 -1.00000E+00  3.43223E-01
       2    -1     0     0   501     0  0.000000000E+00  0.000000000E+00  2.733928642E+02  2.733928642E+02  0.000000000E+00  0.00000E+00  9.000E+00
      21    -1     0     0   502   501  0.000000000E+00  0.000000000E+00 -6.785649747E-03  6.785649747E-03  0.000000000E+00  0.00000E+00  9.000E+00
      23     2     1     2     0     0 -1.019576711E+00 -4.988808022E-01  1.512600158E+02  1.512683123E+02  1.105212773E+00  0.00000E+00  9.000E+00
      11     1     3     3     0     0 -8.049248915E-01 -5.622373660E-02  4.551186273E+01  4.551901487E+01  5.110000000E-04  0.00000E+00  9.000E+00
     -11     1     3     3     0     0 -2.146518195E-01 -4.426570656E-01  1.057481531E+02  1.057492974E+02  5.110000000E-04  0.00000E+00  9.000E+00
       2     1     1     2   502     0  1.019576711E+00  4.988808022E-01  1.221260628E+02  1.221313376E+02  0.000000000E+00  0.00000E+00  9.000E+00
#rwgt            1          24  -11811284.348761287                3     8680421           0
<weights>
-.11145E+08
-.12187E+08
-.10004E+08
-.14819E+08
-.80162E+07
-.91657E+07
-.13909E+08
-.11187E+08
-.11105E+08
-.10869E+08
-.10885E+08
-.10982E+08
-.11042E+08
-.10898E+08
-.10892E+08
-.11219E+08
-.11171E+08
-.11392E+08
-.11422E+08
-.11412E+08
-.11374E+08
-.11417E+08
-.11444E+08
-.11326E+08
-.11314E+08
-.11255E+08
-.11272E+08
-.11357E+08
-.11315E+08
-.11387E+08
-.11430E+08
-.11159E+08
-.11216E+08
-.11146E+08
-.11162E+08
-.11220E+08
-.11087E+08
-.11049E+08
-.11186E+08
-.11143E+08
-.11148E+08
-.11176E+08
-.11114E+08
-.11434E+08
-.10876E+08
</weights>
</event>
<event>
      6  10001 -1.11453E+07  8.94427E-01 -1.00000E+00  4.40982E-01
      21    -1     0     0   502   501  0.000000000E+00  0.000000000E+00  1.252011446E-02  1.252011446E-02  0.000000000E+00  0.00000E+00  9.000E+00
       2    -1     0     0   501     0  0.000000000E+00  0.000000000E+00 -1.304669425E+02  1.304669425E+02  0.000000000E+00  0.00000E+00  9.000E+00
      23     2     1     2     0     0 -1.603046127E-01  4.017499740E-01 -1.247585512E+02  1.247671908E+02  1.403105266E+00  0.00000E+00  9.000E+00
      11     1     3     3     0     0 -1.123270692E-01  2.270252196E-02 -1.162590036E+02  1.162590601E+02  5.110000000E-04  0.00000E+00  9.000E+00
     -11     1     3     3     0     0 -4.797754351E-02  3.790474520E-01 -8.499547584E+00  8.508130712E+00  5.110000000E-04  0.00000E+00  9.000E+00
       2     1     1     2   502     0  1.603046127E-01 -4.017499740E-01 -5.695871188E+00  5.712271808E+00  0.000000000E+00  0.00000E+00  9.000E+00
#rwgt            1          17  -16856675.089837506                3     8680863           0
<weights>
-.11145E+08
-.12109E+08
-.10035E+08
-.14717E+08
-.80409E+07
-.91702E+07
-.13910E+08
-.11141E+08
-.11149E+08
-.11165E+08
-.11172E+08
-.11144E+08
-.11148E+08
-.11173E+08
-.11172E+08
-.11231E+08
-.10987E+08
-.11130E+08
-.11084E+08
-.11082E+08
-.11130E+08
-.11109E+08
-.11118E+08
-.11217E+08
-.11022E+08
-.11077E+08
-.11173E+08
-.11147E+08
-.11052E+08
-.11117E+08
-.11115E+08
-.11104E+08
-.11175E+08
-.11135E+08
-.11151E+08
-.11139E+08
-.11146E+08
-.11151E+08
-.11144E+08
-.11121E+08
-.11162E+08
-.11183E+08
-.11104E+08
-.11116E+08
-.11171E+08
</weights>
</event>
<event>
      7  10001  1.11453E+07  2.12806E+00 -1.00000E+00  3.42815E-01
      -2    -1     0     0     0   502  0.000000000E+00  0.000000000E+00  1.973919473E-01  1.973919473E-01  0.000000000E+00  0.00000E+00  9.000E+00
       2    -1     0     0   501     0  0.000000000E+00  0.000000000E+00 -4.201592598E+01  4.201592598E+01  0.000000000E+00  0.00000E+00  9.000E+00
      23     2     1     2     0     0  7.503157173E-01  1.953363744E-01 -1.400004499E+01  1.435811848E+01  3.090821338E+00  0.00000E+00  9.000E+00
      11     1     3     3     0     0  2.614972280E-01  1.640139509E+00 -7.174221301E+00  7.363958851E+00  5.110000000E-04  0.00000E+00  9.000E+00
     -11     1     3     3     0     0  4.888184894E-01 -1.444803135E+00 -6.825823693E+00  6.994159632E+00  5.110000000E-04  0.00000E+00  9.000E+00
      21     1     1     2   511   502 -9.195900675E-03  4.284973261E-01 -6.047362958E+00  6.062531919E+00  8.429369702E-08  0.00000E+00  9.000E+00
      21     1     1     2   501   511 -7.411198167E-01 -6.238337004E-01 -2.177112608E+01  2.179266752E+01  3.371747881E-07  0.00000E+00  9.000E+00
#rwgt            1           8   656689.23094515887                3     8682002           0
<weights>
0.11145E+08
0.12105E+08
0.10199E+08
0.11935E+08
0.10004E+08
0.11050E+08
0.11024E+08
0.11212E+08
0.11079E+08
0.10997E+08
0.11053E+08
0.11144E+08
0.10987E+08
0.11036E+08
0.11049E+08
0.11047E+08
0.11306E+08
0.11087E+08
0.11450E+08
0.11467E+08
0.11071E+08
0.11246E+08
0.11248E+08
0.11262E+08
0.11175E+08
0.11164E+08
0.11137E+08
0.11428E+08
0.10891E+08
0.11239E+08
0.11212E+08
0.11158E+08
0.11160E+08
0.11038E+08
0.11302E+08
0.11098E+08
0.11196E+08
0.10972E+08
0.11306E+08
0.11070E+08
0.11206E+08
0.11231E+08
0.11054E+08
0.11262E+08
0.11031E+08
</weights>
</event>
<event>
      7  10001  1.11453E+07  8.94427E-01 -1.00000E+00  6.07649E-01
      -4    -1     0     0     0   502  0.000000000E+00  0.000000000E+00  6.210999269E-01  6.210999269E-01  0.000000000E+00  0.00000E+00  9.000E+00
      -2    -1     0     0     0   501  0.000000000E+00  0.000000000E+00 -5.623451011E+01  5.623451011E+01  0.000000000E+00  0.00000E+00  9.000E+00
      23     2     1     2     0     0  2.393719936E-01  5.653071221E-03 -5.583562565E+01  5.586768492E+01  1.877177649E+00  0.00000E+00  9.000E+00
      11     1     3     3     0     0 -6.486470378E-01  1.726501985E-01 -4.043725590E+01  4.044282650E+01  5.110000000E-04  0.00000E+00  9.000E+00
     -11     1     3     3     0     0  8.880190314E-01 -1.669971273E-01 -1.539836975E+01  1.542485842E+01  5.110000000E-04  0.00000E+00  9.000E+00
      -4     1     1     2     0   501 -3.452659656E-01 -1.486682699E-02  5.465357315E-01  6.466304319E-01  0.000000000E+00  0.00000E+00  9.000E+00
      -2     1     1     2     0   502  1.058939720E-01  9.213755774E-03 -3.243202672E-01  3.412946855E-01  0.000000000E+00  0.00000E+00  9.000E+00
#rwgt            2          38   438793.18346403353                3     8687143           0
<weights>
0.11145E+08
0.11051E+08
0.11038E+08
0.13431E+08
0.88440E+07
0.91702E+07
0.13910E+08
0.11216E+08
0.11075E+08
0.11042E+08
0.11107E+08
0.11055E+08
0.11114E+08
0.11101E+08
0.11108E+08
0.11083E+08
0.11207E+08
0.11209E+08
0.11115E+08
0.11090E+08
0.11221E+08
0.11165E+08
0.11175E+08
0.11171E+08
0.11169E+08
0.11220E+08
0.11081E+08
0.11170E+08
0.11041E+08
0.11133E+08
0.11169E+08
0.11091E+08
0.11207E+08
0.11264E+08
0.11029E+08
0.11054E+08
0.11227E+08
0.10930E+08
0.11384E+08
0.11094E+08
0.11180E+08
0.11250E+08
0.11033E+08
0.11196E+08
0.11086E+08
</weights>
</event>
<event>
      6  10001 -1.11453E+07  8.94427E-01 -1.00000E+00  4.52780E-01
       2    -1     0     0   501     0  0.000000000E+00  0.000000000E+00  7.445148422E+02  7.445148422E+02  0.000000000E+00  0.00000E+00  9.000E+00
      21    -1     0     0   502   501  0.000000000E+00  0.000000000E+00 -4.294682224E-03  4.294682224E-03  0.000000000E+00  0.00000E+00  9.000E+00
      23     2     1     2     0     0 -4.044037456E-01  9.742446816E-01  3.891844944E+02  3.891915181E+02  2.086703107E+00  0.00000E+00  9.000E+00
      11     1     3     3     0     0  7.878998334E-01  1.899382715E-01  1.999332576E+02  1.999349003E+02  5.110000000E-04  0.00000E+00  9.000E+00
     -11     1     3     3     0     0 -1.192303579E+00  7.843064101E-01  1.892512368E+02  1.892566177E+02  5.110000000E-04  0.00000E+00  9.000E+00
       2     1     1     2   502     0  4.044037456E-01 -9.742446816E-01  3.553260531E+02  3.553276188E+02  0.000000000E+00  0.00000E+00  9.000E+00
#rwgt            1          24  -13748606.747855730                3     8688762           0
<weights>
-.11145E+08
-.11325E+08
-.10770E+08
-.13776E+08
-.86301E+07
-.91618E+07
-.13909E+08
-.11171E+08
-.11121E+08
-.10823E+08
-.10813E+08
-.10962E+08
-.11006E+08
-.10841E+08
-.10824E+08
-.11226E+08
-.11211E+08
-.11462E+08
-.11505E+08
-.11492E+08
-.11439E+08
-.11502E+08
-.11521E+08
-.11413E+08
-.11328E+08
-.11287E+08
-.11357E+08
-.11435E+08
-.11372E+08
-.11479E+08
-.11514E+08
-.11184E+08
-.11217E+08
-.11138E+08
-.11178E+08
-.11208E+08
-.11102E+08
-.11132E+08
-.11084E+08
-.11166E+08
-.11128E+08
-.11185E+08
-.11104E+08
-.11506E+08
-.10814E+08
</weights>
</event>
<event>
      6  10001  1.11453E+07  8.94427E-01 -1.00000E+00  5.87296E-01
      -2    -1     0     0     0   502  0.000000000E+00  0.000000000E+00  3.709896130E-02  3.709896130E-02  0.000000000E+00  0.00000E+00  9.000E+00
      21    -1     0     0   502   501  0.000000000E+00  0.000000000E+00 -4.615347826E+01  4.615347826E+01  0.000000000E+00  0.00000E+00  9.000E+00
      23     2     1     2     0     0 -9.597325892E-02 -8.728186170E-01 -1.685786149E+01  1.691888633E+01  1.135868596E+00  0.00000E+00  9.000E+00
      11     1     3     3     0     0  3.069734633E-01 -9.637851259E-01 -1.095988926E+01  1.100646571E+01  5.110000000E-04  0.00000E+00  9.000E+00
     -11     1     3     3     0     0 -4.029467222E-01  9.096650894E-02 -5.897972227E+00  5.912420622E+00  5.110000000E-04  0.00000E+00  9.000E+00
      -2     1     1     2     0   501  9.597325892E-02  8.728186170E-01 -2.925851781E+01  2.927169089E+01  0.000000000E+00  0.00000E+00  9.000E+00
#rwgt            1           7   989975.80818799755                3     8689829           0
<weights>
0.11145E+08
0.12182E+08
0.10032E+08
0.12252E+08
0.97658E+07
0.10923E+08
0.11219E+08
0.11301E+08
0.10990E+08
0.10706E+08
0.10841E+08
0.10889E+08
0.11033E+08
0.10795E+08
0.10830E+08
0.11233E+08
0.11157E+08
0.11437E+08
0.11490E+08
0.11482E+08
0.11419E+08
0.11446E+08
0.11548E+08
0.11199E+08
0.11527E+08
0.11427E+08
0.11004E+08
0.11396E+08
0.11264E+08
0.11358E+08
0.11470E+08
0.11086E+08
0.11304E+08
0.11182E+08
0.11117E+08
0.11380E+08
0.10938E+08
0.10655E+08
0.11577E+08
0.11106E+08
0.11181E+08
0.11160E+08
0.11130E+08
0.11525E+08
0.10780E+08
</weights>
</event>
<event>
      6  10001 -1.11453E+07  8.94427E-01 -1.00000E+00  4.14344E-01
      -4    -1     0     0     0   502  0.000000000E+00  0.000000000E+00  1.731035541E+02  1.731035541E+02  0.000000000E+00  0.00000E+00  9.000E+00
      21    -1     0     0   502   501  0.000000000E+00  0.000000000E+00 -8.672375673E-03  8.672375673E-03  0.000000000E+00  0.00000E+00  9.000E+00
      23     2     1     2     0     0 -2.428845566E-01  4.295800632E-01  1.639762120E+02  1.639802131E+02  1.033747168E+00  0.00000E+00  9.000E+00
      11     1     3     3     0     0 -6.193011344E-01  3.456329540E-01  1.272438239E+02  1.272458004E+02  5.110000000E-04  0.00000E+00  9.000E+00
     -11     1     3     3     0     0  3.764165778E-01  8.394710918E-02  3.673238808E+01  3.673441262E+01  5.110000000E-04  0.00000E+00  9.000E+00
      -4     1     1     2     0   501  2.428845566E-01 -4.295800632E-01  9.118669718E+00  9.132013435E+00  0.000000000E+00  0.00000E+00  9.000E+00
#rwgt            1           3  -2040898.3667574418                3     8731477           0
<weights>
-.11145E+08
-.12535E+08
-.95310E+07
-.15242E+08
-.76370E+07
-.91661E+07
-.13909E+08
-.11174E+08
-.11117E+08
-.10829E+08
-.10821E+08
-.10964E+08
-.11011E+08
-.10847E+08
-.10831E+08
-.11225E+08
-.11207E+08
-.11455E+08
-.11494E+08
-.11483E+08
-.11432E+08
-.11492E+08
-.11513E+08
-.11400E+08
-.11328E+08
-.11285E+08
-.11336E+08
-.11427E+08
-.11365E+08
-.11469E+08
-.11505E+08
-.11181E+08
-.11217E+08
-.11138E+08
-.11176E+08
-.11211E+08
-.11099E+08
-.11123E+08
-.11093E+08
-.11164E+08
-.11130E+08
-.11184E+08
-.11105E+08
-.11498E+08
-.10821E+08
</weights>
</event>
<event>
      6  10001 -1.11453E+07  8.94427E-01 -1.00000E+00  2.96958E-01
      21    -1     0     0   502   501  0.000000000E+00  0.000000000E+00  2.134324916E-02  2.134324916E-02  0.000000000E+00  0.00000E+00  9.000E+00
       2    -1     0     0   501     0  0.000000000E+00  0.000000000E+00 -3.443188255E+02  3.443188255E+02  0.000000000E+00  0.00000E+00  9.000E+00
      23     2     1     2     0     0 -1.119630823E+00 -7.128682181E-01 -1.809373894E+02  1.809746838E+02  3.425714464E+00  0.00000E+00  9.000E+00
      11     1     3     3     0     0 -2.299307981E+00 -4.901574037E-01 -1.398502513E+02  1.398700106E+02  5.110000000E-04  0.00000E+00  9.000E+00
     -11     1     3     3     0     0  1.179677158E+00 -2.227108144E-01 -4.108713809E+01  4.110467315E+01  5.110000000E-04  0.00000E+00  9.000E+00
       2     1     1     2   502     0  1.119630823E+00  7.128682181E-01 -1.633600928E+02  1.633654849E+02  0.000000000E+00  0.00000E+00  9.000E+00
#rwgt            1          17  -2073058.3563173593                3     8732184           0
<weights>
-.11145E+08
-.31263E+08
0.18619E+08
-.37996E+08
0.14919E+08
-.91702E+07
-.13910E+08
-.11127E+08
-.11162E+08
-.11168E+08
-.11159E+08
-.11035E+08
-.11275E+08
-.11162E+08
-.11159E+08
-.11335E+08
-.10860E+08
-.11374E+08
-.10795E+08
-.10749E+08
-.11398E+08
-.11105E+08
-.11162E+08
-.11108E+08
-.11136E+08
-.11237E+08
-.11082E+08
-.10872E+08
-.11415E+08
-.11083E+08
-.11168E+08
-.11024E+08
-.11262E+08
-.11383E+08
-.10844E+08
-.11119E+08
-.11167E+08
-.11162E+08
-.11131E+08
-.11213E+08
-.11083E+08
-.11146E+08
-.11144E+08
-.11126E+08
-.11164E+08
</weights>
</event>
<event>
      7  10001  1.11453E+07  4.00502E+00 -1.00000E+00  2.60168E-01
      -1    -1     0     0     0   502  0.000000000E+00  0.000000000E+00  1.637460919E+02  1.637460919E+02  0.000000000E+00  0.00000E+00  9.000E+00
      21    -1     0     0   501   511  0.000000000E+00  0.000000000E+00 -2.855616734E-01  2.855616734E-01  0.000000000E+00  0.00000E+00  9.000E+00
      23     2     1     2     0     0 -2.933259746E+00  2.895910534E+00  5.728395370E+01  5.744096079E+01  1.011095465E+00  0.00000E+00  9.000E+00
      11     1     3     3     0     0 -2.858875986E+00  2.802748259E+00  5.135908355E+01  5.151489137E+01  5.110000000E-04  0.00000E+00  9.000E+00
     -11     1     3     3     0     0 -7.438375997E-02  9.316227506E-02  5.924870148E+00  5.926069412E+00  5.110000000E-04  0.00000E+00  9.000E+00
      21     1     1     2   501   502  5.340812768E+00  3.046953248E-01  5.630127193E+01  5.655484366E+01  1.168007728E-06  0.00000E+00  9.000E+00
      -1     1     1     2     0   511 -2.407553021E+00 -3.200605859E+00  4.987530458E+01  5.003584911E+01  0.000000000E+00  0.00000E+00  9.000E+00
#rwgt            1          10   41292.790488402658                3     8734160           0
<weights>
0.11145E+08
0.11449E+08
0.10756E+08
0.12665E+08
0.94699E+07
0.10030E+08
0.12589E+08
0.11060E+08
0.11257E+08
0.10824E+08
0.10799E+08
0.10963E+08
0.10993E+08
0.10836E+08
0.10812E+08
0.11229E+08
0.11225E+08
0.11502E+08
0.11474E+08
0.11458E+08
0.11483E+08
0.11516E+08
0.11528E+08
0.11420E+08
0.11319E+08
0.11329E+08
0.11238E+08
0.11451E+08
0.11372E+08
0.11498E+08
0.11524E+08
0.11175E+08
0.11230E+08
0.11161E+08
0.11159E+08
0.11122E+08
0.11197E+08
0.11158E+08
0.11061E+08
0.11166E+08
0.11127E+08
0.11200E+08
0.11088E+08
0.11514E+08
0.10807E+08
</weights>
</event>
<event>
      6  10001 -1.11453E+07  8.94427E-01 -1.00000E+00  1.54859E-01
      -2    -1     0     0     0   502  0.000000000E+00  0.000000000E+00  2.321472454E-02  2.321472454E-02  0.000000000E+00  0.00000E+00  9.000E+00
      21    -1     0     0   502   501  0.000000000E+00  0.000000000E+00 -2.829031366E+01  2.829031366E+01  0.000000000E+00  0.00000E+00  9.000E+00
      23     2     1     2     0     0 -2.129408958E-01  3.402378702E-01 -2.419796947E+01  2.422465076E+01  1.063424783E+00  0.00000E+00  9.000E+00
      11     1     3     3     0     0 -4.328931526E-01  4.025957094E-01 -2.283418618E+01  2.284183746E+01  5.110000000E-04  0.00000E+00  9.000E+00
     -11     1     3     3     0     0  2.199522568E-01 -6.235783913E-02 -1.363783292E+00  1.382813301E+00  5.110000000E-04  0.00000E+00  9.000E+00
      -2     1     1     2     0   501  2.129408958E-01 -3.402378702E-01 -4.069129457E+00  4.088877618E+00  0.000000000E+00  0.00000E+00  9.000E+00
#rwgt            1           7  -2316436.8435663939                3     8735373           0
<weights>
-.11145E+08
-.12691E+08
-.94296E+07
-.15425E+08
-.75555E+07
-.91702E+07
-.13910E+08
-.11217E+08
-.11073E+08
-.10942E+08
-.10998E+08
-.11001E+08
-.11118E+08
-.10986E+08
-.11000E+08
-.11196E+08
-.11130E+08
-.11284E+08
-.11290E+08
-.11286E+08
-.11275E+08
-.11284E+08
-.11326E+08
-.11169E+08
-.11317E+08
-.11272E+08
-.11065E+08
-.11257E+08
-.11196E+08
-.11241E+08
-.11295E+08
-.11118E+08
-.11218E+08
-.11154E+08
-.11141E+08
-.11266E+08
-.11037E+08
-.10905E+08
-.11350E+08
-.11106E+08
-.11182E+08
-.11147E+08
-.11144E+08
-.11321E+08
-.10974E+08
</weights>
</event>
<event>
      6  10001  1.11453E+07  8.94427E-01 -1.00000E+00  5.72340E-01
       2    -1     0     0   501     0  0.000000000E+00  0.000000000E+00  3.141027907E-02  3.141027907E-02  0.000000000E+00  0.00000E+00  9.000E+00
      21    -1     0     0   502   501  0.000000000E+00  0.000000000E+00 -6.438523505E+01  6.438523505E+01  0.000000000E+00  0.00000E+00  9.000E+00
      23     2     1     2     0     0  1.032472392E+00  5.516288800E-01 -3.047215219E+01  3.051475703E+01  1.108171277E+00  0.00000E+00  9.000E+00
      11     1     3     3     0     0  8.475771372E-01  8.843973357E-01 -2.203874607E+01  2.207276318E+01  5.110000000E-04  0.00000E+00  9.000E+00
     -11     1     3     3     0     0  1.848952546E-01 -3.327684557E-01 -8.433406119E+00  8.441993848E+00  5.110000000E-04  0.00000E+00  9.000E+00
       2     1     1     2   502     0 -1.032472392E+00 -5.516288800E-01 -3.388167258E+01  3.390188830E+01  0.000000000E+00  0.00000E+00  9.000E+00
#rwgt            1          24   767393.08250549552                3     8737860           0
<weights>
0.11145E+08
0.11956E+08
0.10244E+08
0.12356E+08
0.97234E+07
0.10683E+08
0.11588E+08
0.11282E+08
0.11011E+08
0.10820E+08
0.10963E+08
0.10931E+08
0.11108E+08
0.10928E+08
0.10956E+08
0.11212E+08
0.11094E+08
0.11315E+08
0.11317E+08
0.11309E+08
0.11307E+08
0.11312E+08
0.11361E+08
0.11142E+08
0.11401E+08
0.11320E+08
0.11041E+08
0.11271E+08
0.11182E+08
0.11225E+08
0.11325E+08
0.11065E+08
0.11284E+08
0.11185E+08
0.11105E+08
0.11356E+08
0.10957E+08
0.10640E+08
0.11674E+08
0.11070E+08
0.11214E+08
0.11141E+08
0.11151E+08
0.11387E+08
0.10901E+08
</weights>
</event>
<event>
      7  10001  1.11453E+07  1.39921E+00 -1.00000E+00  4.47906E-01
      21    -1     0     0   502   511  0.000000000E+00  0.000000000E+00  4.882027992E+00  4.882027992E+00  0.000000000E+00  0.00000E+00  9.000E+00
       2    -1     0     0   501     0  0.000000000E+00  0.000000000E+00 -2.048693516E+01  2.048693516E+01  0.000000000E+00  0.00000E+00  9.000E+00
      23     2     1     2     0     0 -1.562203229E-01  4.320943754E-01 -1.791146672E+01  1.795213576E+01  1.116883070E+00  0.00000E+00  9.000E+00
      11     1     3     3     0     0  1.153532355E-01  5.363996529E-01 -3.980883343E+00  4.018515075E+00  5.110000000E-04  0.00000E+00  9.000E+00
     -11     1     3     3     0     0 -2.715735584E-01 -1.043052775E-01 -1.393058338E+01  1.393362068E+01  5.110000000E-04  0.00000E+00  9.000E+00
       2     1     1     2   502     0 -8.081223680E-01  5.817306848E-01 -2.351246886E+00  2.553396614E+00  0.000000000E+00  0.00000E+00  9.000E+00
      21     1     1     2   501   511  9.643426909E-01 -1.013825060E+00  4.657806442E+00  4.863430778E+00  1.332800375E-07  0.00000E+00  9.000E+00
#rwgt            1          17   1984800.4610646428                3     8829427           0
<weights>
0.11145E+08
0.14683E+08
0.77152E+07
0.12655E+08
0.92376E+07
0.12517E+08
0.87716E+07
0.11173E+08
0.11112E+08
0.10861E+08
0.10877E+08
0.11108E+08
0.10859E+08
0.10876E+08
0.10878E+08
0.10981E+08
0.11527E+08
0.11245E+08
0.11682E+08
0.11693E+08
0.11221E+08
0.11444E+08
0.11459E+08
0.11362E+08
0.11316E+08
0.11337E+08
0.11069E+08
0.11646E+08
0.10947E+08
0.11443E+08
0.11399E+08
0.11178E+08
0.11201E+08
0.11041E+08
0.11325E+08
0.10931E+08
0.11374E+08
0.11032E+08
0.11146E+08
0.11108E+08
0.11168E+08
0.11285E+08
0.10997E+08
0.11442E+08
0.10872E+08
</weights>
</event>
<event>
      6  10001 -1.11453E+07  8.94427E-01 -1.00000E+00  2.81445E-01
      21    -1     0     0   502   501  0.000000000E+00  0.000000000E+00  2.300868220E-02  2.300868220E-02  0.000000000E+00  0.00000E+00  9.000E+00
       2    -1     0     0   501     0  0.000000000E+00  0.000000000E+00 -2.954840505E+02  2.954840505E+02  0.000000000E+00  0.00000E+00  9.000E+00
      23     2     1     2     0     0  1.304932778E+00  4.078667547E-01 -2.699288349E+02  2.699382736E+02  1.796232611E+00  0.00000E+00  9.000E+00
      11     1     3     3     0     0  2.835175890E-01  1.025257893E+00 -1.285438392E+02  1.285482404E+02  5.110000000E-04  0.00000E+00  9.000E+00
     -11     1     3     3     0     0  1.021415189E+00 -6.173911381E-01 -1.413849957E+02  1.413900332E+02  5.110000000E-04  0.00000E+00  9.000E+00
       2     1     1     2   502     0 -1.304932778E+00 -4.078667547E-01 -2.553220690E+01  2.556878554E+01  0.000000000E+00  0.00000E+00  9.000E+00
#rwgt            1          17  -34212422.802722417                3     8836225           0
<weights>
-.11145E+08
-.12249E+08
-.98244E+07
-.14888E+08
-.78719E+07
-.91702E+07
-.13910E+08
-.11127E+08
-.11162E+08
-.11170E+08
-.11162E+08
-.11053E+08
-.11256E+08
-.11164E+08
-.11162E+08
-.11335E+08
-.10857E+08
-.11335E+08
-.10838E+08
-.10800E+08
-.11356E+08
-.11104E+08
-.11156E+08
-.11129E+08
-.11112E+08
-.11204E+08
-.11101E+08
-.10917E+08
-.11356E+08
-.11088E+08
-.11159E+08
-.11032E+08
-.11253E+08
-.11338E+08
-.10897E+08
-.11126E+08
-.11161E+08
-.11166E+08
-.11125E+08
-.11199E+08
-.11095E+08
-.11151E+08
-.11138E+08
-.11123E+08
-.11167E+08
</weights>
</event>
<event>
      6  10001 -1.11453E+07  8.94427E-01 -1.00000E+00  1.91256E-01
       2    -1     0     0   501     0  0.000000000E+00  0.000000000E+00  2.441625273E+02  2.441625273E+02  0.000000000E+00  0.00000E+00  9.000E+00
      21    -1     0     0   502   501  0.000000000E+00  0.000000000E+00 -2.646119402E-03  2.646119402E-03  0.000000000E+00  0.00000E+00  9.000E+00
      23     2     1     2     0     0  3.520667076E-01 -1.027690292E-02  1.983112494E+02  1.983151888E+02  1.199333169E+00  0.00000E+00  9.000E+00
      11     1     3     3     0     0  2.751885204E-01  7.041115180E-02  1.966499709E+02  1.966501761E+02  5.110000000E-04  0.00000E+00  9.000E+00
     -11     1     3     3     0     0  7.687818716E-02 -8.068805472E-02  1.661278468E+00  1.665012681E+00  5.110000000E-04  0.00000E+00  9.000E+00
       2     1     1     2   502     0 -3.520667076E-01  1.027690292E-02  4.584863176E+01  4.584998463E+01  0.000000000E+00  0.00000E+00  9.000E+00
#rwgt            1          24  -10092876.546036050                3     8836595           0
<weights>
-.11145E+08
-.11845E+08
-.10257E+08
-.14411E+08
-.82190E+07
-.91611E+07
-.13909E+08
-.11175E+08
-.11117E+08
-.10828E+08
-.10820E+08
-.10963E+08
-.11010E+08
-.10846E+08
-.10830E+08
-.11225E+08
-.11207E+08
-.11456E+08
-.11495E+08
-.11483E+08
-.11433E+08
-.11493E+08
-.11513E+08
-.11400E+08
-.11329E+08
-.11286E+08
-.11331E+08
-.11428E+08
-.11365E+08
-.11470E+08
-.11506E+08
-.11181E+08
-.11217E+08
-.11138E+08
-.11176E+08
-.11211E+08
-.11098E+08
-.11124E+08
-.11092E+08
-.11164E+08
-.11129E+08
-.11184E+08
-.11105E+08
-.11499E+08
-.10820E+08
</weights>
</event>
<event>
      6  10001  1.11453E+07  8.94427E-01 -1.00000E+00  6.02168E-01
      21    -1     0     0   502   501  0.000000000E+00  0.000000000E+00  3.209223313E-02  3.209223313E-02  0.000000000E+00  0.00000E+00  9.000E+00
       2    -1     0     0   501     0  0.000000000E+00  0.000000000E+00 -3.771226170E+02  3.771226170E+02  0.000000000E+00  0.00000E+00  9.000E+00
      23     2     1     2     0     0  1.335149873E-01 -2.684835435E-01 -3.763645348E+02  3.763692342E+02  1.856731737E+00  0.00000E+00  9.000E+00
      11     1     3     3     0     0 -6.396952107E-01 -7.321863091E-01 -1.791071186E+02  1.791097575E+02  5.110000000E-04  0.00000E+00  9.000E+00
     -11     1     3     3     0     0  7.732101981E-01  4.637027656E-01 -1.972574162E+02  1.972594767E+02  5.110000000E-04  0.00000E+00  9.000E+00
       2     1     1     2   502     0 -1.335149873E-01  2.684835435E-01 -7.259899414E-01  7.854750537E-01  0.000000000E+00  0.00000E+00  9.000E+00
#rwgt            1          17   45271957.204357274                3     8838268           0
<weights>
0.11145E+08
0.12578E+08
0.94951E+07
0.13050E+08
0.91678E+07
0.10729E+08
0.11517E+08
0.11130E+08
0.11160E+08
0.11160E+08
0.11156E+08
0.11043E+08
0.11258E+08
0.11157E+08
0.11155E+08
0.11394E+08
0.10776E+08
0.11359E+08
0.10820E+08
0.10780E+08
0.11380E+08
0.11108E+08
0.11168E+08
0.11129E+08
0.11119E+08
0.11199E+08
0.11104E+08
0.10909E+08
0.11372E+08
0.11090E+08
0.11170E+08
0.11002E+08
0.11286E+08
0.11343E+08
0.10887E+08
0.11131E+08
0.11156E+08
0.11156E+08
0.11135E+08
0.11203E+08
0.11092E+08
0.11151E+08
0.11139E+08
0.11131E+08
0.11159E+08
</weights>
</event>
<event>
      7  10001  1.11453E+07  2.53797E+00 -1.00000E+00  3.14809E-01
      -2    -1     0     0     0   502  0.000000000E+00  0.000000000E+00  5.180062691E-01  5.180062691E-01  0.000000000E+00  0.00000E+00  9.000E+00
       2    -1     0     0   501     0  0.000000000E+00  0.000000000E+00 -2.161995348E+01  2.161995348E+01  0.000000000E+00  0.00000E+00  9.000E+00
      23     2     1     2     0     0  5.193561000E-01 -1.944517150E+00 -1.541276362E+01  1.567615414E+01  2.034121022E+00  0.00000E+00  9.000E+00
      11     1     3     3     0     0  6.285282654E-01 -1.299957038E+00 -4.142387666E+00  4.386833928E+00  5.110000000E-04  0.00000E+00  9.000E+00
     -11     1     3     3     0     0 -1.091721654E-01 -6.445601120E-01 -1.127037596E+01  1.128932021E+01  5.110000000E-04  0.00000E+00  9.000E+00
      21     1     1     2   511   502 -7.094158110E-01  1.367963405E+00 -5.646767040E+00  5.853253170E+00  0.000000000E+00  0.00000E+00  9.000E+00
      21     1     1     2   501   511  1.900597110E-01  5.765537442E-01 -4.241655051E-02  6.085524442E-01  8.435284238E-08  0.00000E+00  9.000E+00
#rwgt            1           8   219542.83500786152                3     8862345           0
<weights>
0.11145E+08
0.11821E+08
0.10420E+08
0.12415E+08
0.96320E+07
0.10490E+08
0.11884E+08
0.11196E+08
0.11092E+08
0.10955E+08
0.10994E+08
0.11103E+08
0.10986E+08
0.10985E+08
0.10994E+08
0.11064E+08
0.11327E+08
0.11180E+08
0.11466E+08
0.11475E+08
0.11165E+08
0.11306E+08
0.11322E+08
0.11269E+08
0.11242E+08
0.11239E+08
0.11101E+08
0.11441E+08
0.10982E+08
0.11295E+08
0.11281E+08
0.11152E+08
0.11186E+08
0.11072E+08
0.11263E+08
0.11076E+08
0.11222E+08
0.10987E+08
0.11254E+08
0.11092E+08
0.11187E+08
0.11227E+08
0.11058E+08
0.11320E+08
0.10979E+08
</weights>
</event>
<event>
      6  10001 -1.11453E+07  8.94427E-01 -1.00000E+00  4.94731E-01
       2    -1     0     0   501     0  0.000000000E+00  0.000000000E+00  5.455402105E+02  5.455402105E+02  0.000000000E+00  0.00000E+00  9.000E+00
      21    -1     0     0   502   501  0.000000000E+00  0.000000000E+00 -2.462886691E-03  2.462886691E-03  0.000000000E+00  0.00000E+00  9.000E+00
      23     2     1     2     0     0 -1.605397965E-01  3.160111510E-01  1.554284536E+02  1.554332183E+02  1.164277044E+00  0.00000E+00  9.000E+00
      11     1     3     3     0     0 -3.646128975E-01  6.336661372E-01  1.289577094E+02  1.289597816E+02  5.110000000E-04  0.00000E+00  9.000E+00
     -11     1     3     3     0     0  2.040731010E-01 -3.176549862E-01  2.647074421E+01  2.647343668E+01  5.110000000E-04  0.00000E+00  9.000E+00
       2     1     1     2   502     0  1.605397965E-01 -3.160111510E-01  3.901092941E+02  3.901094551E+02  0.000000000E+00  0.00000E+00  9.000E+00
#rwgt            1          24  -8877746.0676193964                3     8864529           0
<weights>
-.11145E+08
-.10944E+08
-.11419E+08
-.13295E+08
-.91491E+07
-.91759E+07
-.13910E+08
-.11195E+08
-.11094E+08
-.10870E+08
-.10888E+08
-.10981E+08
-.11045E+08
-.10898E+08
-.10894E+08
-.11219E+08
-.11170E+08
-.11390E+08
-.11418E+08
-.11411E+08
-.11371E+08
-.11412E+08
-.11447E+08
-.11304E+08
-.11324E+08
-.11261E+08
-.11210E+08
-.11354E+08
-.11309E+08
-.11381E+08
-.11426E+08
-.11158E+08
-.11216E+08
-.11146E+08
-.11160E+08
-.11226E+08
-.11079E+08
-.11033E+08
-.11183E+08
-.11143E+08
-.11148E+08
-.11174E+08
-.11115E+08
-.11432E+08
-.10879E+08
</weights>
</event>
<event>
      6  10001 -1.11453E+07  8.94427E-01 -1.00000E+00  1.81036E-01
      21    -1     0     0   502   501  0.000000000E+00  0.000000000E+00  5.501594632E-03  5.501594632E-03  0.000000000E+00  0.00000E+00  9.000E+00
       2    -1     0     0   501     0  0.000000000E+00  0.000000000E+00 -2.525557345E+02  2.525557345E+02  0.000000000E+00  0.00000E+00  9.000E+00
      23     2     1     2     0     0 -4.989312292E-01  5.969398673E-02 -2.136477901E+02  2.136555482E+02  1.750016719E+00  0.00000E+00  9.000E+00
      11     1     3     3     0     0  3.220912637E-01  5.668976503E-01 -4.214791012E+01  4.215295297E+01  5.110000000E-04  0.00000E+00  9.000E+00
     -11     1     3     3     0     0 -8.210224929E-01 -5.072036635E-01 -1.714998800E+02  1.715025953E+02  5.110000000E-04  0.00000E+00  9.000E+00
       2     1     1     2   502     0  4.989312292E-01 -5.969398673E-02 -3.890244273E+01  3.890568784E+01  0.000000000E+00  0.00000E+00  9.000E+00
#rwgt            1          17  -10611049.111374587                3     8866415           0
<weights>
-.11145E+08
-.12081E+08
-.10054E+08
-.14683E+08
-.80560E+07
-.91702E+07
-.13910E+08
-.11127E+08
-.11162E+08
-.11172E+08
-.11165E+08
-.11075E+08
-.11233E+08
-.11168E+08
-.11166E+08
-.11325E+08
-.10867E+08
-.11289E+08
-.10891E+08
-.10861E+08
-.11304E+08
-.11103E+08
-.11148E+08
-.11153E+08
-.11086E+08
-.11169E+08
-.11121E+08
-.10969E+08
-.11286E+08
-.11095E+08
-.11149E+08
-.11045E+08
-.11238E+08
-.11288E+08
-.10958E+08
-.11132E+08
-.11154E+08
-.11170E+08
-.11121E+08
-.11181E+08
-.11110E+08
-.11158E+08
-.11131E+08
-.11120E+08
-.11170E+08
</weights>
</event>
<event>
      7  10001  1.11453E+07  2.30132E+00 -1.00000E+00  3.29775E-01
       4    -1     0     0   501     0  0.000000000E+00  0.000000000E+00  5.326489711E-01  5.326489711E-01  0.000000000E+00  0.00000E+00  9.000E+00
      21    -1     0     0   502   511  0.000000000E+00  0.000000000E+00 -1.737271670E+02  1.737271670E+02  0.000000000E+00  0.00000E+00  9.000E+00
      23     2     1     2     0     0 -7.873054574E-01 -1.140879997E+00 -1.259436190E+00  2.165799959E+00  1.087682350E+00  0.00000E+00  9.000E+00
      11     1     3     3     0     0 -7.182573349E-01 -1.215297713E+00 -1.402789566E+00  1.990140939E+00  5.110000000E-04  0.00000E+00  9.000E+00
     -11     1     3     3     0     0 -6.904812244E-02  7.441771546E-02  1.433533764E-01  1.756590197E-01  5.110000000E-04  0.00000E+00  9.000E+00
       4     1     1     2   502     0 -1.504974377E+00  1.344703889E+00 -1.425686455E+01  1.439900563E+01  0.000000000E+00  0.00000E+00  9.000E+00
      21     1     1     2   501   511  2.292279834E+00 -2.038238923E-01 -1.576782173E+02  1.576950104E+02  3.303624740E-06  0.00000E+00  9.000E+00
#rwgt            1          28   1415872.5406202893                3     8870006           0
<weights>
0.11145E+08
0.12390E+08
0.97344E+07
0.12971E+08
0.91111E+07
0.10561E+08
0.11775E+08
0.11230E+08
0.11057E+08
0.10792E+08
0.10818E+08
0.10936E+08
0.11022E+08
0.10821E+08
0.10823E+08
0.11231E+08
0.11204E+08
0.11467E+08
0.11492E+08
0.11490E+08
0.11442E+08
0.11488E+08
0.11546E+08
0.11287E+08
0.11430E+08
0.11378E+08
0.11049E+08
0.11441E+08
0.11326E+08
0.11449E+08
0.11506E+08
0.11161E+08
0.11236E+08
0.11141E+08
0.11168E+08
0.11282E+08
0.11026E+08
0.10990E+08
0.11176E+08
0.11154E+08
0.11139E+08
0.11172E+08
0.11118E+08
0.11514E+08
0.10803E+08
</weights>
</event>
<event>
      7  10001  1.11453E+07  8.94427E-01 -1.00000E+00  6.07649E-01
      21    -1     0     0   511   502  0.000000000E+00  0.000000000E+00  3.031902254E+00  3.031902254E+00  0.000000000E+00  0.00000E+00  9.000E+00
       4    -1     0     0   501     0  0.000000000E+00  0.000000000E+00 -4.743092861E+00  4.743092861E+00  0.000000000E+00  0.00000E+00  9.000E+00
      23     2     1     2     0     0 -1.273728459E-01 -1.824653579E-01 -4.516189047E+00  4.684043656E+00  1.222613598E+00  0.00000E+00  9.000E+00
      11     1     3     3     0     0  5.129736475E-02 -5.853100173E-01 -3.784905536E+00  3.830238819E+00  5.110000000E-04  0.00000E+00  9.000E+00
     -11     1     3     3     0     0 -1.786702107E-01  4.028446594E-01 -7.312835114E-01  8.538048365E-01  5.110000000E-04  0.00000E+00  9.000E+00
      21     1     1     2   501   502  1.414689626E-01  3.176270484E-01  2.902782030E+00  2.923532781E+00  2.421152116E-07  0.00000E+00  9.000E+00
       4     1     1     2   511     0 -1.409611674E-02 -1.351616905E-01 -9.778359024E-02  1.674186776E-01  0.000000000E+00  0.00000E+00  9.000E+00
#rwgt            2         196   2063611.1807521137                3     8915004           0
<weights>
0.11145E+08
0.11381E+08
0.10617E+08
0.13833E+08
0.85073E+07
0.91702E+07
0.13910E+08
0.11216E+08
0.11071E+08
0.10820E+08
0.10829E+08
0.10945E+08
0.11035E+08
0.10844E+08
0.10838E+08
0.11224E+08
0.11209E+08
0.11457E+08
0.11466E+08
0.11464E+08
0.11433E+08
0.11479E+08
0.11515E+08
0.11299E+08
0.11394E+08
0.11367E+08
0.11061E+08
0.11440E+08
0.11319E+08
0.11448E+08
0.11492E+08
0.11170E+08
0.11223E+08
0.11136E+08
0.11175E+08
0.11269E+08
0.11039E+08
0.11048E+08
0.11141E+08
0.11156E+08
0.11138E+08
0.11167E+08
0.11123E+08
0.11495E+08
0.10822E+08
</weights>
</event>
<event>
      7  10001  1.11453E+07  9.03772E+00 -1.00000E+00  2.00396E-01
       1    -1     0     0   501     0  0.000000000E+00  0.000000000E+00  5.587231097E+00  5.587231097E+00  0.000000000E+00  0.00000E+00  9.000E+00
      21    -1     0     0   502   501  0.000000000E+00  0.000000000E+00 -4.616647115E+00  4.616647115E+00  0.000000000E+00  0.00000E+00  9.000E+00
      23     2     1     2     0     0 -2.969952555E-01 -3.085440373E-01  6.632486645E-01  1.580135053E+00  1.368766740E+00  0.00000E+00  9.000E+00
      11     1     3     3     0     0 -5.427163224E-01 -2.529993005E-01  9.963858833E-01  1.162469244E+00  5.110000000E-04  0.00000E+00  9.000E+00
     -11     1     3     3     0     0  2.457210669E-01 -5.554473687E-02 -3.331372188E-01  4.176658092E-01  5.110000000E-04  0.00000E+00  9.000E+00
       1     1     1     2   511     0 -3.793242167E+00 -1.572627705E+00  3.525319091E-01  4.121422422E+00  0.000000000E+00  0.00000E+00  9.000E+00
      21     1     1     2   502   511  4.090237422E+00  1.881171742E+00 -4.519659140E-02  4.502320738E+00  3.531677863E-07  0.00000E+00  9.000E+00
#rwgt            2         218   96113.979614621159                3     8918333           0
<weights>
0.11145E+08
0.10863E+08
0.11241E+08
0.13203E+08
0.90066E+07
0.91702E+07
0.13910E+08
0.11206E+08
0.11082E+08
0.10879E+08
0.10896E+08
0.10979E+08
0.11058E+08
0.10907E+08
0.10903E+08
0.11219E+08
0.11169E+08
0.11389E+08
0.11393E+08
0.11390E+08
0.11369E+08
0.11404E+08
0.11434E+08
0.11266E+08
0.11338E+08
0.11289E+08
0.11104E+08
0.11358E+08
0.11290E+08
0.11374E+08
0.11416E+08
0.11158E+08
0.11212E+08
0.11141E+08
0.11165E+08
0.11243E+08
0.11061E+08
0.11033E+08
0.11184E+08
0.11141E+08
0.11150E+08
0.11167E+08
0.11123E+08
0.11422E+08
0.10887E+08
</weights>
</event>
<event>
      6  10001 -1.11453E+07  8.94427E-01 -1.00000E+00  4.27783E-01
      21    -1     0     0   502   501  0.000000000E+00  0.000000000E+00  2.711840362E-01  2.711840362E-01  0.000000000E+00  0.00000E+00  9.000E+00
       4    -1     0     0   501     0  0.000000000E+00  0.000000000E+00 -2.282377288E+00  2.282377288E+00  0.000000000E+00  0.00000E+00  9.000E+00
      23     2     1     2     0     0 -1.346712077E-01 -2.214850583E-01 -1.432786293E+00  1.919726507E+00  1.251112040E+00  0.00000E+00  9.000E+00
      11     1     3     3     0     0  3.985093240E-02 -1.865857831E-01  2.004997297E-01  2.767720253E-01  5.110000000E-04  0.00000E+00  9.000E+00
     -11     1     3     3     0     0 -1.745221401E-01 -3.489927513E-02 -1.633286023E+00  1.642954482E+00  5.110000000E-04  0.00000E+00  9.000E+00
       4     1     1     2   502     0  1.346712077E-01  2.214850583E-01 -5.784069585E-01  6.338348167E-01  0.000000000E+00  0.00000E+00  9.000E+00
#rwgt            1          19  -368312.18920440279                3     8918584           0
<weights>
-.11145E+08
-.10253E+08
-.11306E+08
-.16673E+08
-.68613E+07
-.65963E+07
-.17861E+08
-.11210E+08
-.11079E+08
-.10917E+08
-.10955E+08
-.10995E+08
-.11089E+08
-.10953E+08
-.10959E+08
-.11208E+08
-.11143E+08
-.11327E+08
-.11336E+08
-.11332E+08
-.11313E+08
-.11334E+08
-.11373E+08
-.11215E+08
-.11319E+08
-.11264E+08
-.11096E+08
-.11295E+08
-.11242E+08
-.11297E+08
-.11346E+08
-.11137E+08
-.11213E+08
-.11149E+08
-.11151E+08
-.11249E+08
-.11054E+08
-.10962E+08
-.11265E+08
-.11121E+08
-.11167E+08
-.11158E+08
-.11132E+08
-.11363E+08
-.10938E+08
</weights>
</event>
<event>
      7  10001  1.11453E+07  3.39210E+00 -1.00000E+00  2.77731E-01
       1    -1     0     0   501     0  0.000000000E+00  0.000000000E+00  1.164367976E+01  1.164367976E+01  0.000000000E+00  0.00000E+00  9.000E+00
      21    -1     0     0   502   501  0.000000000E+00  0.000000000E+00 -7.560627048E-01  7.560627048E-01  0.000000000E+00  0.00000E+00  9.000E+00
      23     2     1     2     0     0  5.846952551E-01  2.449681544E+00  6.098993293E+00  6.715813533E+00  1.249649557E+00  0.00000E+00  9.000E+00
      11     1     3     3     0     0  5.825685942E-01  1.263741468E+00  1.916391688E+00  2.368329797E+00  5.110000000E-04  0.00000E+00  9.000E+00
     -11     1     3     3     0     0  2.126660836E-03  1.185940076E+00  4.182601605E+00  4.347483736E+00  5.110000000E-04  0.00000E+00  9.000E+00
       1     1     1     2   511     0 -3.653356566E-02 -2.853793558E-01  2.389129167E+00  2.406390295E+00  0.000000000E+00  0.00000E+00  9.000E+00
      21     1     1     2   502   511 -5.481616894E-01 -2.164302189E+00  2.399494598E+00  3.277538639E+00  3.182017282E-07  0.00000E+00  9.000E+00
#rwgt            1          22   166281.56088968660                3     8923391           0
<weights>
0.11145E+08
0.12685E+08
0.94905E+07
0.12582E+08
0.94256E+07
0.11076E+08
0.10985E+08
0.11186E+08
0.11101E+08
0.10777E+08
0.10753E+08
0.10939E+08
0.10979E+08
0.10787E+08
0.10765E+08
0.11237E+08
0.11238E+08
0.11527E+08
0.11559E+08
0.11551E+08
0.11498E+08
0.11572E+08
0.11591E+08
0.11431E+08
0.11370E+08
0.11333E+08
0.11246E+08
0.11505E+08
0.11411E+08
0.11553E+08
0.11585E+08
0.11202E+08
0.11220E+08
0.11131E+08
0.11190E+08
0.11221E+08
0.11089E+08
0.11181E+08
0.11019E+08
0.11185E+08
0.11112E+08
0.11190E+08
0.11099E+08
0.11569E+08
0.10758E+08
</weights>
</event>
<event>
      7  10001  1.11453E+07  8.94427E-01 -1.00000E+00  6.07649E-01
      21    -1     0     0   501   512  0.000000000E+00  0.000000000E+00  3.255465656E+00  3.255465656E+00  0.000000000E+00  0.00000E+00  9.000E+00
      -5    -1     0     0     0   502  0.000000000E+00  0.000000000E+00 -2.014368479E+00  2.014368479E+00  0.000000000E+00  0.00000E+00  9.000E+00
      23     2     1     2     0     0 -1.129726796E-01  3.514823129E-01 -1.633640119E+00  2.224927296E+00  1.464656543E+00  0.00000E+00  9.000E+00
      11     1     3     3     0     0 -5.655425868E-01  2.939145638E-01 -1.649583885E+00  1.768431916E+00  5.110000000E-04  0.00000E+00  9.000E+00
     -11     1     3     3     0     0  4.525699073E-01  5.756774911E-02  1.594376545E-02  4.564953795E-01  5.110000000E-04  0.00000E+00  9.000E+00
      21     1     1     2   501   502  4.849731019E-01 -2.255668521E-01  2.201034553E+00  2.265089936E+00  5.161913656E-08  0.00000E+00  9.000E+00
      -5     1     1     2     0   512 -3.720004223E-01 -1.259154608E-01  6.737027428E-01  7.798169036E-01  0.000000000E+00  0.00000E+00  9.000E+00
#rwgt            2         152   498712.13008001784                3     8931785           0
<weights>
0.11145E+08
0.12134E+08
0.96909E+07
0.14748E+08
0.77648E+07
0.91702E+07
0.13910E+08
0.11207E+08
0.11081E+08
0.10848E+08
0.10857E+08
0.10964E+08
0.11040E+08
0.10873E+08
0.10865E+08
0.11224E+08
0.11188E+08
0.11428E+08
0.11434E+08
0.11431E+08
0.11406E+08
0.11449E+08
0.11477E+08
0.11297E+08
0.11358E+08
0.11315E+08
0.11107E+08
0.11401E+08
0.11316E+08
0.11420E+08
0.11461E+08
0.11168E+08
0.11216E+08
0.11138E+08
0.11171E+08
0.11247E+08
0.11059E+08
0.11060E+08
0.11150E+08
0.11151E+08
0.11142E+08
0.11171E+08
0.11119E+08
0.11463E+08
0.10850E+08
</weights>
</event>
<event>
      7  10001  1.11453E+07  4.45129E+00 -1.00000E+00  2.50269E-01
      -2    -1     0     0     0   502  0.000000000E+00  0.000000000E+00  6.807043620E-02  6.807043620E-02  0.000000000E+00  0.00000E+00  9.000E+00
      21    -1     0     0   502   501  0.000000000E+00  0.000000000E+00 -8.331979213E+01  8.331979213E+01  0.000000000E+00  0.00000E+00  9.000E+00
      23     2     1     2     0     0 -1.455917614E-01 -5.552788001E-01 -6.269176780E+00  6.380329971E+00  1.037545919E+00  0.00000E+00  9.000E+00
      11     1     3     3     0     0  2.167270753E-01 -1.937614671E-01 -4.317187394E-01  5.204761881E-01  5.110000000E-04  0.00000E+00  9.000E+00
     -11     1     3     3     0     0 -3.623188367E-01 -3.615173330E-01 -5.837458040E+00  5.859853783E+00  5.110000000E-04  0.00000E+00  9.000E+00
      -2     1     1     2     0   511  1.012429658E-02 -1.975774922E-02  5.142310387E-04  2.220663120E-02  0.000000000E+00  0.00000E+00  9.000E+00
      21     1     1     2   511   501  1.354674649E-01  5.750365493E-01 -7.698305914E+01  7.698532596E+01  1.651812370E-06  0.00000E+00  9.000E+00
#rwgt            2         101   1209405.1805476109                3     8933157           0
<weights>
0.11145E+08
0.10593E+08
0.11654E+08
0.12875E+08
0.93375E+07
0.91702E+07
0.13910E+08
0.11179E+08
0.11112E+08
0.11116E+08
0.11165E+08
0.11059E+08
0.11235E+08
0.11174E+08
0.11176E+08
0.11160E+08
0.11066E+08
0.11113E+08
0.11062E+08
0.11057E+08
0.11120E+08
0.11098E+08
0.11073E+08
0.11102E+08
0.11134E+08
0.11143E+08
0.11114E+08
0.11099E+08
0.11076E+08
0.11065E+08
0.11094E+08
0.11100E+08
0.11177E+08
0.11153E+08
0.11131E+08
0.11229E+08
0.11067E+08
0.10923E+08
0.11423E+08
0.11056E+08
0.11227E+08
0.11114E+08
0.11179E+08
0.11126E+08
0.11148E+08
</weights>
</event>
<event>
      7  10001  1.11453E+07  1.29965E+00 -1.00000E+00  4.70688E-01
       2    -1     0     0   501     0  0.000000000E+00  0.000000000E+00  6.123680310E+00  6.123680310E+00  0.000000000E+00  0.00000E+00  9.000E+00
      21    -1     0     0   502   512  0.000000000E+00  0.000000000E+00 -2.949076722E+01  2.949076722E+01  0.000000000E+00  0.00000E+00  9.000E+00
      23     2     1     2     0     0 -7.004504829E-03  1.945899914E-01  4.682371714E+00  4.850060841E+00  1.249228149E+00  0.00000E+00  9.000E+00
      11     1     3     3     0     0  5.248223741E-01 -2.263205278E-01  1.780554287E+00  1.870035651E+00  5.110000000E-04  0.00000E+00  9.000E+00
     -11     1     3     3     0     0 -5.318268789E-01  4.209105192E-01  2.901817426E+00  2.980025189E+00  5.110000000E-04  0.00000E+00  9.000E+00
       2     1     1     2   502     0 -7.051696515E-01  8.925561508E-01  1.102119513E+00  1.583852310E+00  0.000000000E+00  0.00000E+00  9.000E+00
      21     1     1     2   501   512  7.121741563E-01 -1.087146142E+00 -2.915157814E+01  2.918053438E+01  3.371747881E-07  0.00000E+00  9.000E+00
#rwgt            1          24   730558.18739461643                3     8933484           0
<weights>
0.11145E+08
0.16272E+08
0.62582E+07
0.10398E+08
0.10504E+08
0.15207E+08
0.46429E+07
0.11122E+08
0.11168E+08
0.10538E+08
0.10409E+08
0.10836E+08
0.10802E+08
0.10504E+08
0.10436E+08
0.11267E+08
0.11426E+08
0.11857E+08
0.11969E+08
0.11946E+08
0.11805E+08
0.11973E+08
0.11965E+08
0.11850E+08
0.11443E+08
0.11474E+08
0.11665E+08
0.11871E+08
0.11686E+08
0.11984E+08
0.11988E+08
0.11304E+08
0.11239E+08
0.11105E+08
0.11253E+08
0.11173E+08
0.11154E+08
0.11538E+08
0.10610E+08
0.11289E+08
0.11021E+08
0.11235E+08
0.11051E+08
0.11919E+08
0.10451E+08
</weights>
</event>
<event>
      7  10001 -1.11453E+07  1.27633E+00 -1.00000E+00  4.76466E-01
       3    -1     0     0   501     0  0.000000000E+00  0.000000000E+00  4.183358245E+00  4.183358245E+00  0.000000000E+00  0.00000E+00  9.000E+00
      21    -1     0     0   502   511  0.000000000E+00  0.000000000E+00 -5.651775847E+01  5.651775847E+01  0.000000000E+00  0.00000E+00  9.000E+00
      23     2     1     2     0     0 -7.060840650E-01 -1.627757119E-01  2.730991351E+00  3.212022285E+00  1.527652698E+00  0.00000E+00  9.000E+00
      11     1     3     3     0     0 -3.224138638E-01 -7.115508732E-01  6.198326694E-01  9.972202083E-01  5.110000000E-04  0.00000E+00  9.000E+00
     -11     1     3     3     0     0 -3.836702012E-01  5.487751614E-01  2.111158682E+00  2.214802077E+00  5.110000000E-04  0.00000E+00  9.000E+00
       3     1     1     2   502     0 -4.920505206E-01 -2.771006848E-01  1.138423195E+00  1.270789469E+00  0.000000000E+00  0.00000E+00  9.000E+00
      21     1     1     2   501   511  1.198134586E+00  4.398763967E-01 -5.620381477E+01  5.621830496E+01  9.536743164E-07  0.00000E+00  9.000E+00
#rwgt            1          26  -241572.75127984723                3     8981990           0
<weights>
-.11145E+08
-.11386E+08
-.10121E+08
-.17431E+08
-.61323E+07
-.69202E+07
-.17364E+08
-.11219E+08
-.11069E+08
-.10997E+08
-.11057E+08
-.11041E+08
-.11132E+08
-.11035E+08
-.11055E+08
-.11187E+08
-.11107E+08
-.11227E+08
-.11232E+08
-.11233E+08
-.11220E+08
-.11219E+08
-.11269E+08
-.11113E+08
-.11282E+08
-.11207E+08
-.11016E+08
-.11193E+08
-.11172E+08
-.11179E+08
-.11231E+08
-.11113E+08
-.11203E+08
-.11161E+08
-.11129E+08
-.11243E+08
-.11056E+08
-.10894E+08
-.11355E+08
-.11103E+08
-.11183E+08
-.11146E+08
-.11145E+08
-.11259E+08
-.11032E+08
</weights>
</event>
<event>
      7  10001  1.11453E+07  4.68032E+00 -1.00000E+00  2.46032E-01
      21    -1     0     0   502   501  0.000000000E+00  0.000000000E+00  8.262517323E-01  8.262517323E-01  0.000000000E+00  0.00000E+00  9.000E+00
      -3    -1     0     0     0   502  0.000000000E+00  0.000000000E+00 -1.555241665E+01  1.555241665E+01  0.000000000E+00  0.00000E+00  9.000E+00
      23     2     1     2     0     0  4.194733106E-01 -4.452203445E-01 -1.346337107E+01  1.355743611E+01  1.472254886E+00  0.00000E+00  9.000E+00
      11     1     3     3     0     0 -3.337818265E-01 -7.187972925E-01 -6.549606764E+00  6.597380456E+00  5.110000000E-04  0.00000E+00  9.000E+00
     -11     1     3     3     0     0  7.532551371E-01  2.735769480E-01 -6.913764301E+00  6.960055655E+00  5.110000000E-04  0.00000E+00  9.000E+00
      -3     1     1     2     0   511 -8.252958051E-01  1.726337616E-03 -1.822001376E+00  2.000201280E+00  0.000000000E+00  0.00000E+00  9.000E+00
      21     1     1     2   511   501  4.058224945E-01  4.434940069E-01  5.592075247E-01  8.210309902E-01  1.277508452E-07  0.00000E+00  9.000E+00
#rwgt            2         157   112053.07658850531                3     8986955           0
<weights>
0.11145E+08
0.11267E+08
0.10767E+08
0.13693E+08
0.86271E+07
0.91702E+07
0.13910E+08
0.11207E+08
0.11082E+08
0.10864E+08
0.10957E+08
0.11122E+08
0.10906E+08
0.10921E+08
0.10932E+08
0.11555E+08
0.10614E+08
0.11272E+08
0.11468E+08
0.11483E+08
0.11228E+08
0.11332E+08
0.11455E+08
0.11425E+08
0.11062E+08
0.10162E+08
0.12217E+08
0.10877E+08
0.11837E+08
0.11274E+08
0.11412E+08
0.11190E+08
0.11169E+08
0.11185E+08
0.11119E+08
0.11275E+08
0.11030E+08
0.10954E+08
0.11261E+08
0.11143E+08
0.11144E+08
0.11210E+08
0.11077E+08
0.11394E+08
0.10911E+08
</weights>
</event>
<event>
      7  10001  1.11453E+07  1.20762E+00 -1.00000E+00  4.94622E-01
      21    -1     0     0   502   501  0.000000000E+00  0.000000000E+00  1.628457616E-01  1.628457616E-01  0.000000000E+00  0.00000E+00  9.000E+00
       1    -1     0     0   501     0  0.000000000E+00  0.000000000E+00 -5.094554446E+01  5.094554446E+01  0.000000000E+00  0.00000E+00  9.000E+00
      23     2     1     2     0     0 -2.243947641E-01 -6.610174296E-01 -4.809958118E+01  4.821356627E+01  3.238976109E+00  0.00000E+00  9.000E+00
      11     1     3     3     0     0  9.932231896E-01 -1.229945658E+00 -1.427082383E+01  1.435812215E+01  5.110000000E-04  0.00000E+00  9.000E+00
     -11     1     3     3     0     0 -1.217617954E+00  5.689282288E-01 -3.382875735E+01  3.385544412E+01  5.110000000E-04  0.00000E+00  9.000E+00
       1     1     1     2   512     0  1.961204351E-02  5.465923171E-01 -2.582140502E+00  2.639431258E+00  0.000000000E+00  0.00000E+00  9.000E+00
      21     1     1     2   502   512  2.047827206E-01  1.144251125E-01 -1.009770215E-01  2.553926935E-01  4.896312739E-08  0.00000E+00  9.000E+00
#rwgt            2         186   7081685.3278187541                3     8990930           0
<weights>
0.11145E+08
0.11132E+08
0.10950E+08
0.13529E+08
0.87733E+07
0.91702E+07
0.13910E+08
0.11216E+08
0.11074E+08
0.11078E+08
0.11092E+08
0.11020E+08
0.11166E+08
0.11103E+08
0.11111E+08
0.10818E+08
0.11475E+08
0.11078E+08
0.11213E+08
0.11193E+08
0.11070E+08
0.11183E+08
0.11162E+08
0.11203E+08
0.11121E+08
0.11199E+08
0.11092E+08
0.11140E+08
0.11053E+08
0.11152E+08
0.11168E+08
0.11100E+08
0.11198E+08
0.11060E+08
0.11172E+08
0.11066E+08
0.11218E+08
0.10989E+08
0.11314E+08
0.11134E+08
0.11146E+08
0.11222E+08
0.11063E+08
0.11191E+08
0.11095E+08
</weights>
</event>
<event>
      6  10001 -1.11453E+07  8.94427E-01 -1.00000E+00  4.36309E-01
      21    -1     0     0   502   501  0.000000000E+00  0.000000000E+00  8.513548486E-03  8.513548486E-03  0.000000000E+00  0.00000E+00  9.000E+00
       1    -1     0     0   501     0  0.000000000E+00  0.000000000E+00 -2.103854023E+02  2.103854023E+02  0.000000000E+00  0.00000E+00  9.000E+00
      23     2     1     2     0     0  8.389267642E-01  6.780800454E-01 -1.305328599E+02  1.305426006E+02  1.174516216E+00  0.00000E+00  9.000E+00
      11     1     3     3     0     0  9.060078691E-01  6.900483313E-01 -1.300468870E+02  1.300518736E+02  5.110000000E-04  0.00000E+00  9.000E+00
     -11     1     3     3     0     0 -6.708110490E-02 -1.196828588E-02 -4.859728642E-01  4.907270120E-01  5.110000000E-04  0.00000E+00  9.000E+00
       1     1     1     2   502     0 -8.389267642E-01 -6.780800454E-01 -7.984402894E+01  7.985131525E+01  0.000000000E+00  0.00000E+00  9.000E+00
#rwgt            1          16  -1458555.4357757941                3     8991751           0
<weights>
-.11145E+08
-.11996E+08
-.10161E+08
-.14579E+08
-.81413E+07
-.91702E+07
-.13910E+08
-.11223E+08
-.11070E+08
-.11177E+08
-.11231E+08
-.11365E+08
-.10897E+08
-.11196E+08
-.11203E+08
-.10312E+08
-.12145E+08
-.10523E+08
-.11761E+08
-.11853E+08
-.10445E+08
-.11148E+08
-.11008E+08
-.11389E+08
-.10803E+08
-.10792E+08
-.11326E+08
-.11534E+08
-.10478E+08
-.11187E+08
-.11026E+08
-.11088E+08
-.11184E+08
-.10533E+08
-.11784E+08
-.11136E+08
-.11144E+08
-.11171E+08
-.11127E+08
-.11254E+08
-.11038E+08
-.11213E+08
-.11071E+08
-.11083E+08
-.11204E+08
</weights>
</event>
<event>
      6  10001 -1.11453E+07  8.94427E-01 -1.00000E+00  3.95172E-01
      21    -1     0     0   502   501  0.000000000E+00  0.000000000E+00  1.148945680E-02  1.148945680E-02  0.000000000E+00  0.00000E+00  9.000E+00
       2    -1     0     0   501     0  0.000000000E+00  0.000000000E+00 -1.858218663E+02  1.858218663E+02  0.000000000E+00  0.00000E+00  9.000E+00
      23     2     1     2     0     0 -8.422374403E-01 -3.344627707E-01 -6.632335056E+01  6.634289305E+01  1.330939041E+00  0.00000E+00  9.000E+00
      11     1     3     3     0     0 -9.911866633E-01  4.002095033E-02 -2.825357147E+01  2.827098077E+01  5.110000000E-04  0.00000E+00  9.000E+00
     -11     1     3     3     0     0  1.489492230E-01 -3.744837211E-01 -3.806977909E+01  3.807191228E+01  5.110000000E-04  0.00000E+00  9.000E+00
       2     1     1     2   502     0  8.422374403E-01  3.344627707E-01 -1.194870262E+02  1.194904627E+02  0.000000000E+00  0.00000E+00  9.000E+00
#rwgt            1          17  -6207948.7560339188                3     8993692           0
<weights>
-.11145E+08
-.12398E+08
-.97334E+07
-.15068E+08
-.77989E+07
-.91702E+07
-.13910E+08
-.11131E+08
-.11158E+08
-.11172E+08
-.11171E+08
-.11113E+08
-.11190E+08
-.11173E+08
-.11171E+08
-.11289E+08
-.10912E+08
-.11206E+08
-.10987E+08
-.10973E+08
-.11213E+08
-.11104E+08
-.11132E+08
-.11190E+08
-.11045E+08
-.11114E+08
-.11152E+08
-.11061E+08
-.11163E+08
-.11106E+08
-.11130E+08
-.11073E+08
-.11207E+08
-.11203E+08
-.11062E+08
-.11139E+08
-.11146E+08
-.11169E+08
-.11122E+08
-.11151E+08
-.11137E+08
-.11170E+08
-.11118E+08
-.11115E+08
-.11173E+08
</weights>
</event>
<event>
      6  10001 -1.11453E+07  8.94427E-01 -1.00000E+00  1.63448E-01
      21    -1     0     0   502   501  0.000000000E+00  0.000000000E+00  2.098978837E-02  2.098978837E-02  0.000000000E+00  0.00000E+00  9.000E+00
      -2    -1     0     0     0   502  0.000000000E+00  0.000000000E+00 -2.753512875E+01  2.753512875E+01  0.000000000E+00  0.00000E+00  9.000E+00
      23     2     1     2     0     0 -3.479486705E-01  1.753564294E-01 -2.079466109E+01  2.082535327E+01  1.060938760E+00  0.00000E+00  9.000E+00
      11     1     3     3     0     0  2.803856603E-01 -2.416070690E-01 -7.892040406E+00  7.900714659E+00  5.110000000E-04  0.00000E+00  9.000E+00
     -11     1     3     3     0     0 -6.283343308E-01  4.169634984E-01 -1.290262068E+01  1.292463861E+01  5.110000000E-04  0.00000E+00  9.000E+00
      -2     1     1     2     0   501  3.479486705E-01 -1.753564294E-01 -6.719477872E+00  6.730765263E+00  0.000000000E+00  0.00000E+00  9.000E+00
#rwgt            1          14  -9384093.1183086112                3     8994296           0
<weights>
-.11145E+08
-.12659E+08
-.95619E+07
-.15385E+08
-.76615E+07
-.91702E+07
-.13910E+08
-.11220E+08
-.11070E+08
-.10936E+08
-.10994E+08
-.11018E+08
-.11059E+08
-.10983E+08
-.10994E+08
-.11114E+08
-.11240E+08
-.11309E+08
-.11270E+08
-.11249E+08
-.11311E+08
-.11287E+08
-.11330E+08
-.11221E+08
-.11277E+08
-.11323E+08
-.11042E+08
-.11285E+08
-.11121E+08
-.11248E+08
-.11293E+08
-.11086E+08
-.11250E+08
-.11227E+08
-.11071E+08
-.11063E+08
-.11232E+08
-.10904E+08
-.11354E+08
-.11113E+08
-.11167E+08
-.11230E+08
-.11055E+08
-.11323E+08
-.10973E+08
</weights>
</event>
<event>
      6  10001 -1.11453E+07  8.94427E-01 -1.00000E+00  3.80032E-01
      21    -1     0     0   502   501  0.000000000E+00  0.000000000E+00  1.226409714E-02  1.226409714E-02  0.000000000E+00  0.00000E+00  9.000E+00
       2    -1     0     0   501     0  0.000000000E+00  0.000000000E+00 -1.999829521E+02  1.999829521E+02  0.000000000E+00  0.00000E+00  9.000E+00
      23     2     1     2     0     0  6.775935732E-01  3.959766891E-01 -1.798012394E+02  1.798105044E+02  1.647997931E+00  0.00000E+00  9.000E+00
      11     1     3     3     0     0  9.993151429E-01 -1.922009268E-01 -1.392977144E+02  1.393014315E+02  5.110000000E-04  0.00000E+00  9.000E+00
     -11     1     3     3     0     0 -3.217215697E-01  5.881776159E-01 -4.050352494E+01  4.050907294E+01  5.110000000E-04  0.00000E+00  9.000E+00
       2     1     1     2   502     0 -6.775935732E-01 -3.959766891E-01 -2.016944862E+01  2.018471175E+01  0.000000000E+00  0.00000E+00  9.000E+00
#rwgt            1          17  -15363702.843604898                3     8995867           0
<weights>
-.11145E+08
-.12029E+08
-.10136E+08
-.14619E+08
-.81219E+07
-.91702E+07
-.13910E+08
-.11130E+08
-.11160E+08
-.11173E+08
-.11170E+08
-.11105E+08
-.11200E+08
-.11172E+08
-.11170E+08
-.11300E+08
-.10898E+08
-.11224E+08
-.10966E+08
-.10948E+08
-.11232E+08
-.11103E+08
-.11136E+08
-.11183E+08
-.11053E+08
-.11124E+08
-.11146E+08
-.11041E+08
-.11189E+08
-.11104E+08
-.11134E+08
-.11066E+08
-.11214E+08
-.11221E+08
-.11040E+08
-.11138E+08
-.11147E+08
-.11171E+08
-.11120E+08
-.11157E+08
-.11131E+08
-.11168E+08
-.11121E+08
-.11116E+08
-.11173E+08
</weights>
</event>
<event>
      6  10001 -1.11453E+07  8.94427E-01 -1.00000E+00  5.24458E-01
       5    -1     0     0   501     0  0.000000000E+00  0.000000000E+00  6.712331392E+01  6.712331392E+01  0.000000000E+00  0.00000E+00  9.000E+00
      21    -1     0     0   502   501  0.000000000E+00  0.000000000E+00 -2.480870783E-02  2.480870783E-02  0.000000000E+00  0.00000E+00  9.000E+00
      23     2     1     2     0     0 -7.580666507E-01  2.324341807E-01  3.943575098E+01  3.947400724E+01  1.545995364E+00  0.00000E+00  9.000E+00
      11     1     3     3     0     0  2.045525933E-01  1.418310015E-01  2.685625498E+01  2.685740847E+01  5.110000000E-04  0.00000E+00  9.000E+00
     -11     1     3     3     0     0 -9.626192441E-01  9.060317920E-02  1.257949599E+01  1.261659877E+01  5.110000000E-04  0.00000E+00  9.000E+00
       5     1     1     2   502     0  7.580666507E-01 -2.324341807E-01  2.766275424E+01  2.767411539E+01  0.000000000E+00  0.00000E+00  9.000E+00
#rwgt            1          30  -2256340.5589716728                3     8997048           0
<weights>
-.11145E+08
-.13886E+08
-.82484E+07
-.16901E+08
-.66097E+07
-.91569E+07
-.13908E+08
-.11165E+08
-.11128E+08
-.10814E+08
-.10799E+08
-.10959E+08
-.10997E+08
-.10829E+08
-.10810E+08
-.11227E+08
-.11219E+08
-.11475E+08
-.11524E+08
-.11510E+08
-.11451E+08
-.11519E+08
-.11536E+08
-.11438E+08
-.11328E+08
-.11289E+08
-.11401E+08
-.11449E+08
-.11385E+08
-.11498E+08
-.11531E+08
-.11188E+08
-.11218E+08
-.11137E+08
-.11180E+08
-.11203E+08
-.11108E+08
-.11151E+08
-.11065E+08
-.11171E+08
-.11123E+08
-.11188E+08
-.11101E+08
-.11520E+08
-.10801E+08
</weights>
</event>
<event>
      7  10001  1.11453E+07  9.80516E-01 -1.00000E+00  5.70248E-01
      -3    -1     0     0     0   502  0.000000000E+00  0.000000000E+00  8.944594309E+00  8.944594309E+00  0.000000000E+00  0.00000E+00  9.000E+00
      21    -1     0     0   501   511  0.000000000E+00  0.000000000E+00 -2.095092873E+01  2.095092873E+01  0.000000000E+00  0.00000E+00  9.000E+00
      23     2     1     2     0     0  9.931463226E-01  7.780990487E-02  8.351935426E+00  8.783963857E+00  2.531956097E+00  0.00000E+00  9.000E+00
      11     1     3     3     0     0 -7.129785377E-01 -2.486065699E-01  1.151693784E+00  1.377150121E+00  5.110000000E-04  0.00000E+00  9.000E+00
     -11     1     3     3     0     0  1.706124860E+00  3.264164747E-01  7.200241642E+00  7.406813736E+00  5.110000000E-04  0.00000E+00  9.000E+00
      21     1     1     2   501   502 -8.440600325E-02  2.904334859E-01 -2.009369974E+01  2.009597585E+01  1.066240300E-06  0.00000E+00  9.000E+00
      -3     1     1     2     0   511 -9.087403193E-01 -3.682433908E-01 -2.645701031E-01  1.015583331E+00  0.000000000E+00  0.00000E+00  9.000E+00
#rwgt            2          72   73950.594320863020                3     8999395           0
<weights>
0.11145E+08
0.10246E+08
0.12029E+08
0.12452E+08
0.96380E+07
0.91702E+07
0.13910E+08
0.11216E+08
0.11073E+08
0.10926E+08
0.10973E+08
0.10996E+08
0.11103E+08
0.10965E+08
0.10976E+08
0.11202E+08
0.11140E+08
0.11310E+08
0.11318E+08
0.11314E+08
0.11298E+08
0.11312E+08
0.11356E+08
0.11188E+08
0.11328E+08
0.11280E+08
0.11066E+08
0.11282E+08
0.11217E+08
0.11272E+08
0.11324E+08
0.11127E+08
0.11217E+08
0.11150E+08
0.11146E+08
0.11263E+08
0.11041E+08
0.10931E+08
0.11308E+08
0.11114E+08
0.11174E+08
0.11152E+08
0.11139E+08
0.11346E+08
0.10953E+08
</weights>
</event>
<event>
      6  10001 -1.11453E+07  8.94427E-01 -1.00000E+00  1.48945E-01
       2    -1     0     0   501     0  0.000000000E+00  0.000000000E+00  5.438345647E+01  5.438345647E+01  0.000000000E+00  0.00000E+00  9.000E+00
      21    -1     0     0   502   501  0.000000000E+00  0.000000000E+00 -2.073891289E-02  2.073891289E-02  0.000000000E+00  0.00000E+00  9.000E+00
      23     2     1     2     0     0  2.913872375E-02 -2.656503466E-01  4.943462472E+01  4.946886174E+01  1.820643103E+00  0.00000E+00  9.000E+00
      11     1     3     3     0     0  2.680467825E-01 -1.003269262E+00  2.407311956E+01  2.409550755E+01  5.110000000E-04  0.00000E+00  9.000E+00
     -11     1     3     3     0     0 -2.389080587E-01  7.376189158E-01  2.536150516E+01  2.537335419E+01  5.110000000E-04  0.00000E+00  9.000E+00
       2     1     1     2   502     0 -2.913872375E-02  2.656503466E-01  4.928092835E+00  4.935333643E+00  0.000000000E+00  0.00000E+00  9.000E+00
#rwgt            1          24  -15583797.670548540                3     8999532           0
<weights>
-.11145E+08
-.12502E+08
-.96253E+07
-.15205E+08
-.77127E+07
-.91642E+07
-.13909E+08
-.11172E+08
-.11119E+08
-.10825E+08
-.10815E+08
-.10962E+08
-.11007E+08
-.10843E+08
-.10826E+08
-.11226E+08
-.11210E+08
-.11460E+08
-.11502E+08
-.11490E+08
-.11437E+08
-.11499E+08
-.11519E+08
-.11409E+08
-.11328E+08
-.11286E+08
-.11348E+08
-.11433E+08
-.11370E+08
-.11477E+08
-.11511E+08
-.11183E+08
-.11217E+08
-.11138E+08
-.11177E+08
-.11209E+08
-.11101E+08
-.11130E+08
-.11086E+08
-.11166E+08
-.11128E+08
-.11185E+08
-.11104E+08
-.11504E+08
-.10816E+08
</weights>
</event>
<event>
      6  10001 -1.11453E+07  8.94427E-01 -1.00000E+00  5.98251E-01
      -1    -1     0     0     0   502  0.000000000E+00  0.000000000E+00  3.220848799E+01  3.220848799E+01  0.000000000E+00  0.00000E+00  9.000E+00
      21    -1     0     0   502   501  0.000000000E+00  0.000000000E+00 -2.414856730E-02  2.414856730E-02  0.000000000E+00  0.00000E+00  9.000E+00
      23     2     1     2     0     0  2.446711873E-01 -6.939580197E-02  3.108144997E+01  3.110080401E+01  1.067144859E+00  0.00000E+00  9.000E+00
      11     1     3     3     0     0 -2.986206409E-01 -2.237146129E-01  2.116153034E+01  2.116481961E+01  5.110000000E-04  0.00000E+00  9.000E+00
     -11     1     3     3     0     0  5.432918282E-01  1.543188110E-01  9.919919635E+00  9.935984407E+00  5.110000000E-04  0.00000E+00  9.000E+00
      -1     1     1     2     0   501 -2.446711873E-01  6.939580197E-02  1.102889455E+00  1.131832548E+00  0.000000000E+00  0.00000E+00  9.000E+00
#rwgt            1           9  -529152.80022868281                3     9002565           0
<weights>
-.11145E+08
-.12503E+08
-.96128E+07
-.15201E+08
-.77024E+07
-.91672E+07
-.13909E+08
-.11173E+08
-.11118E+08
-.10824E+08
-.10815E+08
-.10962E+08
-.11007E+08
-.10842E+08
-.10825E+08
-.11226E+08
-.11210E+08
-.11461E+08
-.11501E+08
-.11489E+08
-.11437E+08
-.11499E+08
-.11519E+08
-.11407E+08
-.11329E+08
-.11287E+08
-.11340E+08
-.11433E+08
-.11370E+08
-.11477E+08
-.11512E+08
-.11183E+08
-.11217E+08
-.11138E+08
-.11177E+08
-.11209E+08
-.11100E+08
-.11130E+08
-.11086E+08
-.11166E+08
-.11128E+08
-.11185E+08
-.11104E+08
-.11504E+08
-.10815E+08
</weights>
</event>
<event>
      7  10001  1.11453E+07  8.94427E-01 -1.00000E+00  6.07649E-01
      -3    -1     0     0     0   502  0.000000000E+00  0.000000000E+00  7.190298182E+01  7.190298182E+01  0.000000000E+00  0.00000E+00  9.000E+00
      -2    -1     0     0     0   501  0.000000000E+00  0.000000000E+00 -4.473476866E-02  4.473476866E-02  0.000000000E+00  0.00000E+00  9.000E+00
      23     2     1     2     0     0  7.463245117E-02  3.364886395E-01  8.091959849E+00  8.165626500E+00  1.038675757E+00  0.00000E+00  9.000E+00
      11     1     3     3     0     0  1.324095008E-01  6.251488599E-01  7.155690630E+00  7.184166760E+00  5.110000000E-04  0.00000E+00  9.000E+00
     -11     1     3     3     0     0 -5.777704966E-02 -2.886602204E-01  9.362692185E-01  9.814597399E-01  5.110000000E-04  0.00000E+00  9.000E+00
      -3     1     1     2     0   501 -2.146988703E-01 -6.784885579E-01  5.779282220E+01  5.779720357E+01  0.000000000E+00  0.00000E+00  9.000E+00
      -2     1     1     2     0   502  1.400664191E-01  3.419999184E-01  5.973464999E+00  5.984886519E+00  0.000000000E+00  0.00000E+00  9.000E+00
#rwgt            2          68   54075.875031034549                3     9007008           0
<weights>
0.11145E+08
0.11544E+08
0.10526E+08
0.14030E+08
0.84343E+07
0.91702E+07
0.13910E+08
0.11053E+08
0.11281E+08
0.10812E+08
0.10784E+08
0.10965E+08
0.10979E+08
0.10823E+08
0.10796E+08
0.11209E+08
0.11254E+08
0.11493E+08
0.11525E+08
0.11509E+08
0.11470E+08
0.11537E+08
0.11543E+08
0.11469E+08
0.11305E+08
0.11310E+08
0.11353E+08
0.11475E+08
0.11376E+08
0.11521E+08
0.11542E+08
0.11179E+08
0.11232E+08
0.11136E+08
0.11185E+08
0.11126E+08
0.11196E+08
0.11173E+08
0.11046E+08
0.11173E+08
0.11120E+08
0.11200E+08
0.11087E+08
0.11531E+08
0.10792E+08
</weights>
</event>
<event>
      7  10001  1.11453E+07  1.41840E+00 -1.00000E+00  4.43770E-01
      -2    -1     0     0     0   502  0.000000000E+00  0.000000000E+00  2.513839788E+01  2.513839788E+01  0.000000000E+00  0.00000E+00  9.000E+00
      21    -1     0     0   502   511  0.000000000E+00  0.000000000E+00 -5.556545370E+01  5.556545370E+01  0.000000000E+00  0.00000E+00  9.000E+00
      23     2     1     2     0     0 -3.196998505E-01  1.065262459E+00  2.310507104E+01  2.315934314E+01  1.128660511E+00  0.00000E+00  9.000E+00
      11     1     3     3     0     0  1.940111672E-01  5.484034944E-01  4.184053207E+00  4.224297365E+00  5.110000000E-04  0.00000E+00  9.000E+00
     -11     1     3     3     0     0 -5.137110177E-01  5.168589649E-01  1.892101783E+01  1.893504577E+01  5.110000000E-04  0.00000E+00  9.000E+00
      -2     1     1     2     0   501  6.105080775E-01  3.230018171E-01  1.937407785E+00  2.056842048E+00  0.000000000E+00  0.00000E+00  9.000E+00
      21     1     1     2   501   511 -2.908082270E-01 -1.388264276E+00 -5.546953465E+01  5.548766639E+01  6.743495762E-07  0.00000E+00  9.000E+00
#rwgt            1           7   1762828.4656714287                3     9007601           0
<weights>
0.11145E+08
0.15007E+08
0.73406E+07
0.13473E+08
0.86773E+07
0.12243E+08
0.91931E+07
0.11133E+08
0.11163E+08
0.10746E+08
0.10697E+08
0.10933E+08
0.10939E+08
0.10749E+08
0.10713E+08
0.11236E+08
0.11272E+08
0.11570E+08
0.11649E+08
0.11628E+08
0.11540E+08
0.11638E+08
0.11641E+08
0.11589E+08
0.11333E+08
0.11311E+08
0.11616E+08
0.11552E+08
0.11476E+08
0.11628E+08
0.11650E+08
0.11220E+08
0.11222E+08
0.11129E+08
0.11200E+08
0.11174E+08
0.11142E+08
0.11273E+08
0.10942E+08
0.11203E+08
0.11096E+08
0.11206E+08
0.11082E+08
0.11622E+08
0.10712E+08
</weights>
</event>
<event>
      7  10001  1.11453E+07  8.94427E-01 -1.00000E+00  6.07649E-01
       4    -1     0     0   501     0  0.000000000E+00  0.000000000E+00  6.826103723E-01  6.826103723E-01  0.000000000E+00  0.00000E+00  9.000E+00
      21    -1     0     0   511   502  0.000000000E+00  0.000000000E+00 -1.752216063E+01  1.752216063E+01  0.000000000E+00  0.00000E+00  9.000E+00
      23     2     1     2     0     0 -1.492364724E-01 -4.087659674E-01  1.145522363E-01  1.203526622E+00  1.116240554E+00  0.00000E+00  9.000E+00
      11     1     3     3     0     0  1.284813715E-01 -5.391223677E-01  4.751935004E-01  7.300476109E-01  5.110000000E-04  0.00000E+00  9.000E+00
     -11     1     3     3     0     0 -2.777178439E-01  1.303564003E-01 -3.606412641E-01  4.734790116E-01  5.110000000E-04  0.00000E+00  9.000E+00
      21     1     1     2   501   502 -4.188437228E-02  2.882820492E-01 -1.640357068E+01  1.640615713E+01  2.384185791E-07  0.00000E+00  9.000E+00
       4     1     1     2   511     0  1.911208447E-01  1.204839182E-01 -5.505318094E-01  5.950872415E-01  0.000000000E+00  0.00000E+00  9.000E+00
#rwgt            2         309   779388.49984103651                3     9028609           0
<weights>
0.11145E+08
0.11164E+08
0.10840E+08
0.13568E+08
0.86856E+07
0.91702E+07
0.13910E+08
0.11215E+08
0.11074E+08
0.10917E+08
0.10960E+08
0.10993E+08
0.11095E+08
0.10954E+08
0.10963E+08
0.11205E+08
0.11145E+08
0.11324E+08
0.11332E+08
0.11328E+08
0.11311E+08
0.11328E+08
0.11371E+08
0.11199E+08
0.11332E+08
0.11284E+08
0.11068E+08
0.11295E+08
0.11229E+08
0.11289E+08
0.11340E+08
0.11133E+08
0.11216E+08
0.11149E+08
0.11150E+08
0.11260E+08
0.11043E+08
0.10947E+08
0.11284E+08
0.11119E+08
0.11169E+08
0.11155E+08
0.11136E+08
0.11360E+08
0.10941E+08
</weights>
</event>
<event>
      7  10001 -1.11453E+07  1.27530E+00 -1.00000E+00  4.76725E-01
      -2    -1     0     0     0   502  0.000000000E+00  0.000000000E+00  8.607161643E+00  8.607161643E+00  0.000000000E+00  0.00000E+00  9.000E+00
      21    -1     0     0   502   511  0.000000000E+00  0.000000000E+00 -1.969697253E+01  1.969697253E+01  0.000000000E+00  0.00000E+00  9.000E+00
      23     2     1     2     0     0 -1.723589738E-01 -7.991448787E-01  6.398802999E+00  6.565308212E+00  1.220758755E+00  0.00000E+00  9.000E+00
      11     1     3     3     0     0 -9.069124787E-02 -8.265219398E-01  2.003848780E+00  2.169509994E+00  5.110000000E-04  0.00000E+00  9.000E+00
     -11     1     3     3     0     0 -8.166772595E-02  2.737706108E-02  4.394954219E+00  4.395798217E+00  5.110000000E-04  0.00000E+00  9.000E+00
      -2     1     1     2     0   501  2.654469632E-01 -4.727528610E-01  2.069416042E+00  2.139261581E+00  0.000000000E+00  0.00000E+00  9.000E+00
      21     1     1     2   501   511 -9.308798934E-02  1.271897740E+00 -1.955802993E+01  1.959956438E+01  3.371747881E-07  0.00000E+00  9.000E+00
#rwgt            1           7  -920758.27721874393                3     9028746           0
<weights>
-.11145E+08
-.99485E+07
-.11729E+08
-.17193E+08
-.65811E+07
-.59722E+07
-.18819E+08
-.11237E+08
-.11047E+08
-.10987E+08
-.11053E+08
-.11025E+08
-.11140E+08
-.11037E+08
-.11054E+08
-.11204E+08
-.11082E+08
-.11236E+08
-.11205E+08
-.11208E+08
-.11228E+08
-.11221E+08
-.11261E+08
-.11079E+08
-.11296E+08
-.11215E+08
-.10900E+08
-.11189E+08
-.11166E+08
-.11176E+08
-.11232E+08
-.11111E+08
-.11205E+08
-.11156E+08
-.11133E+08
-.11264E+08
-.11033E+08
-.10868E+08
-.11380E+08
-.11092E+08
-.11193E+08
-.11146E+08
-.11145E+08
-.11263E+08
-.11026E+08
</weights>
</event>
<event>
      7  10001  1.11453E+07  6.16382E+00 -1.00000E+00  2.22621E-01
      21    -1     0     0   502   501  0.000000000E+00  0.000000000E+00  5.847229329E+01  5.847229329E+01  0.000000000E+00  0.00000E+00  9.000E+00
       4    -1     0     0   501     0  0.000000000E+00  0.000000000E+00 -2.310470374E-01  2.310470374E-01  0.000000000E+00  0.00000E+00  9.000E+00
      23     2     1     2     0     0 -3.250138851E-01  3.912713787E-01  3.415211670E+00  3.822521454E+00  1.639900058E+00  0.00000E+00  9.000E+00
      11     1     3     3     0     0  3.064640920E-01 -4.959791133E-01  1.632586992E+00  1.733567440E+00  5.110000000E-04  0.00000E+00  9.000E+00
     -11     1     3     3     0     0 -6.314779771E-01  8.872504920E-01  1.782624678E+00  2.088954014E+00  5.110000000E-04  0.00000E+00  9.000E+00
       4     1     1     2   511     0 -4.419360345E-01 -3.613673092E-02  2.023167596E+00  2.071188172E+00  0.000000000E+00  0.00000E+00  9.000E+00
      21     1     1     2   502   511  7.669499196E-01 -3.551346478E-01  5.280286699E+01  5.280963071E+01  0.000000000E+00  0.00000E+00  9.000E+00
#rwgt            2         195   988560.29244477523                3     9047038           0
<weights>
0.11145E+08
0.10943E+08
0.11151E+08
0.13300E+08
0.89346E+07
0.91702E+07
0.13910E+08
0.11186E+08
0.11102E+08
0.10806E+08
0.10790E+08
0.10951E+08
0.10999E+08
0.10821E+08
0.10802E+08
0.11233E+08
0.11219E+08
0.11491E+08
0.11513E+08
0.11506E+08
0.11464E+08
0.11529E+08
0.11545E+08
0.11397E+08
0.11353E+08
0.11314E+08
0.11232E+08
0.11465E+08
0.11382E+08
0.11508E+08
0.11541E+08
0.11192E+08
0.11216E+08
0.11133E+08
0.11184E+08
0.11222E+08
0.11087E+08
0.11155E+08
0.11059E+08
0.11173E+08
0.11122E+08
0.11185E+08
0.11104E+08
0.11530E+08
0.10793E+08
</weights>
</event>
<event>
      7  10001  1.11453E+07  1.28659E+00 -1.00000E+00  4.73900E-01
      -2    -1     0     0     0   502  0.000000000E+00  0.000000000E+00  5.137722120E+00  5.137722120E+00  0.000000000E+00  0.00000E+00  9.000E+00
      21    -1     0     0   512   501  0.000000000E+00  0.000000000E+00 -1.346839263E+01  1.346839263E+01  0.000000000E+00  0.00000E+00  9.000E+00
      23     2     1     2     0     0  8.384755470E-02 -9.257499822E-01  3.814228048E+00  4.109814068E+00  1.215809454E+00  0.00000E+00  9.000E+00
      11     1     3     3     0     0  5.562779027E-01 -2.054602747E-01  2.218996819E+00  2.296868776E+00  5.110000000E-04  0.00000E+00  9.000E+00
     -11     1     3     3     0     0 -4.724303480E-01 -7.202897075E-01  1.595231229E+00  1.812945292E+00  5.110000000E-04  0.00000E+00  9.000E+00
      -2     1     1     2     0   501  7.952750436E-01 -1.364607282E-02  1.006092007E+00  1.282524751E+00  0.000000000E+00  0.00000E+00  9.000E+00
      21     1     1     2   512   502 -8.791225983E-01  9.393960551E-01 -1.315099056E+01  1.321377593E+01  1.685873940E-07  0.00000E+00  9.000E+00
#rwgt            1           7   637459.95170304750                3     9047308           0
<weights>
0.11145E+08
0.17537E+08
0.53191E+07
0.10706E+08
0.10275E+08
0.15900E+08
0.35797E+07
0.11113E+08
0.11180E+08
0.10627E+08
0.10517E+08
0.10880E+08
0.10850E+08
0.10608E+08
0.10542E+08
0.11262E+08
0.11359E+08
0.11753E+08
0.11830E+08
0.11807E+08
0.11708E+08
0.11853E+08
0.11823E+08
0.11772E+08
0.11375E+08
0.11388E+08
0.11682E+08
0.11748E+08
0.11619E+08
0.11861E+08
0.11862E+08
0.11283E+08
0.11223E+08
0.11109E+08
0.11240E+08
0.11156E+08
0.11166E+08
0.11495E+08
0.10714E+08
0.11259E+08
0.11047E+08
0.11229E+08
0.11058E+08
0.11803E+08
0.10553E+08
</weights>
</event>
<event>
      6  10001 -1.11453E+07  8.94427E-01 -1.00000E+00  5.88674E-01
      21    -1     0     0   502   501  0.000000000E+00  0.000000000E+00  1.215285613E-03  1.215285613E-03  0.000000000E+00  0.00000E+00  9.000E+00
       2    -1     0     0   501     0  0.000000000E+00  0.000000000E+00 -5.674341135E+02  5.674341135E+02  0.000000000E+00  0.00000E+00  9.000E+00
      23     2     1     2     0     0 -2.490273933E-01  9.541309075E-02 -5.401562723E+02  5.401573993E+02  1.070674867E+00  0.00000E+00  9.000E+00
      11     1     3     3     0     0 -6.729834156E-01  4.519986790E-02 -3.462818020E+02  3.462824589E+02  5.110000000E-04  0.00000E+00  9.000E+00
     -11     1     3     3     0     0  4.239560223E-01  5.021322285E-02 -1.938744704E+02  1.938749404E+02  5.110000000E-04  0.00000E+00  9.000E+00
       2     1     1     2   502     0  2.490273933E-01 -9.541309075E-02 -2.727662584E+01  2.727792946E+01  0.000000000E+00  0.00000E+00  9.000E+00
#rwgt            1          17  -41116026.528035723                3     9067821           0
<weights>
-.11145E+08
-.11197E+08
-.11008E+08
-.13608E+08
-.88203E+07
-.91702E+07
-.13910E+08
-.11131E+08
-.11159E+08
-.11163E+08
-.11146E+08
-.10960E+08
-.11354E+08
-.11155E+08
-.11150E+08
-.11208E+08
-.11044E+08
-.11518E+08
-.10627E+08
-.10551E+08
-.11565E+08
-.11111E+08
-.11172E+08
-.11004E+08
-.11252E+08
-.11419E+08
-.10977E+08
-.10677E+08
-.11674E+08
-.11059E+08
-.11198E+08
-.11046E+08
-.11242E+08
-.11597E+08
-.10599E+08
-.11082E+08
-.11203E+08
-.11137E+08
-.11161E+08
-.11278E+08
-.11027E+08
-.11128E+08
-.11163E+08
-.11135E+08
-.11156E+08
</weights>
</event>
<event>
      6  10001  1.11453E+07  8.94427E-01 -1.00000E+00  5.91899E-01
       2    -1     0     0   501     0  0.000000000E+00  0.000000000E+00  5.981655139E-02  5.981655139E-02  0.000000000E+00  0.00000E+00  9.000E+00
      21    -1     0     0   502   501  0.000000000E+00  0.000000000E+00 -3.200176035E+01  3.200176035E+01  0.000000000E+00  0.00000E+00  9.000E+00
      23     2     1     2     0     0 -2.038502323E-01  5.111354620E-01 -2.143056935E+01  2.153580818E+01  2.054000225E+00  0.00000E+00  9.000E+00
      11     1     3     3     0     0  1.901151217E-01 -7.386125882E-01 -5.708178286E+00  5.758905444E+00  5.110000000E-04  0.00000E+00  9.000E+00
     -11     1     3     3     0     0 -3.939653539E-01  1.249748050E+00 -1.572239107E+01  1.577690274E+01  5.110000000E-04  0.00000E+00  9.000E+00
       2     1     1     2   502     0  2.038502323E-01 -5.111354620E-01 -1.051137445E+01  1.052576872E+01  0.000000000E+00  0.00000E+00  9.000E+00
#rwgt            1          24   699961.31703538552                3     9068024           0
<weights>
0.11170E+08
0.13049E+08
0.92609E+07
0.11776E+08
0.10128E+08
0.11968E+08
0.96772E+07
0.11354E+08
0.10984E+08
0.10544E+08
0.10662E+08
0.10837E+08
0.10944E+08
0.10614E+08
0.10649E+08
0.11286E+08
0.11280E+08
0.11668E+08
0.11772E+08
0.11767E+08
0.11630E+08
0.11698E+08
0.11851E+08
0.11335E+08
0.11722E+08
0.11608E+08
0.10981E+08
0.11634E+08
0.11424E+08
0.11607E+08
0.11734E+08
0.11147E+08
0.11362E+08
0.11200E+08
0.11162E+08
0.11440E+08
0.10934E+08
0.10716E+08
0.11439E+08
0.11187E+08
0.11155E+08
0.11210E+08
0.11129E+08
0.11776E+08
0.10603E+08
</weights>
</event>
<event>
      6  10001 -1.11453E+07  8.94427E-01 -1.00000E+00  6.00074E-01
      21    -1     0     0   502   501  0.000000000E+00  0.000000000E+00  7.679481774E-03  7.679481774E-03  0.000000000E+00  0.00000E+00  9.000E+00
       2    -1     0     0   501     0  0.000000000E+00  0.000000000E+00 -1.823029122E+02  1.823029122E+02  0.000000000E+00  0.00000E+00  9.000E+00
      23     2     1     2     0     0  1.011971712E-01  5.270867691E-01 -1.608073962E+02  1.608160533E+02  1.579958903E+00  0.00000E+00  9.000E+00
      11     1     3     3     0     0 -7.112209316E-02 -4.557373321E-01 -2.085541499E+01  2.086051508E+01  5.110000000E-04  0.00000E+00  9.000E+00
     -11     1     3     3     0     0  1.723192644E-01  9.828241012E-01 -1.399519812E+02  1.399555382E+02  5.110000000E-04  0.00000E+00  9.000E+00
       2     1     1     2   502     0 -1.011971712E-01 -5.270867691E-01 -2.148783651E+01  2.149453835E+01  0.000000000E+00  0.00000E+00  9.000E+00
#rwgt            1          17  -20003689.488046225                3     9157443           0
<weights>
-.11145E+08
-.11952E+08
-.10232E+08
-.14526E+08
-.81985E+07
-.91702E+07
-.13910E+08
-.11131E+08
-.11158E+08
-.11172E+08
-.11171E+08
-.11114E+08
-.11189E+08
-.11173E+08
-.11171E+08
-.11287E+08
-.10914E+08
-.11203E+08
-.10991E+08
-.10977E+08
-.11209E+08
-.11104E+08
-.11131E+08
-.11192E+08
-.11044E+08
-.11112E+08
-.11153E+08
-.11064E+08
-.11158E+08
-.11106E+08
-.11129E+08
-.11074E+08
-.11206E+08
-.11201E+08
-.11065E+08
-.11139E+08
-.11146E+08
-.11169E+08
-.11122E+08
-.11149E+08
-.11138E+08
-.11171E+08
-.11117E+08
-.11115E+08
-.11173E+08
</weights>
</event>
<event>
      7  10001  1.11453E+07  1.69868E+00 -1.00000E+00  3.87234E-01
      21    -1     0     0   511   501  0.000000000E+00  0.000000000E+00  1.010176998E+02  1.010176998E+02  0.000000000E+00  0.00000E+00  9.000E+00
      -1    -1     0     0     0   502  0.000000000E+00  0.000000000E+00 -1.476490166E-01  1.476490166E-01  0.000000000E+00  0.00000E+00  9.000E+00
      23     2     1     2     0     0 -2.697879161E-01  1.221858136E-01  1.068160773E+01  1.074308952E+01  1.108834517E+00  0.00000E+00  9.000E+00
      11     1     3     3     0     0  3.682573379E-01  2.075862755E-01  2.437400945E+00  2.473788422E+00  5.110000000E-04  0.00000E+00  9.000E+00
     -11     1     3     3     0     0 -6.380452540E-01 -8.540046183E-02  8.244206782E+00  8.269301102E+00  5.110000000E-04  0.00000E+00  9.000E+00
      -1     1     1     2     0   501 -7.863965772E-01 -1.452591389E+00  6.188790131E+00  6.405432429E+00  0.000000000E+00  0.00000E+00  9.000E+00
      21     1     1     2   511   502  1.056184493E+00  1.330405575E+00  8.399965297E+01  8.401682691E+01  9.536743164E-07  0.00000E+00  9.000E+00
#rwgt            1          15   77179.174913684663                3     9159077           0
<weights>
0.11145E+08
0.13315E+08
0.90238E+07
0.12612E+08
0.93720E+07
0.11492E+08
0.10345E+08
0.10928E+08
0.11433E+08
0.10798E+08
0.10750E+08
0.10968E+08
0.10946E+08
0.10803E+08
0.10766E+08
0.11189E+08
0.11304E+08
0.11530E+08
0.11545E+08
0.11524E+08
0.11508E+08
0.11576E+08
0.11567E+08
0.11526E+08
0.11280E+08
0.11342E+08
0.11330E+08
0.11523E+08
0.11377E+08
0.11567E+08
0.11572E+08
0.11173E+08
0.11250E+08
0.11136E+08
0.11191E+08
0.11026E+08
0.11307E+08
0.11219E+08
0.11003E+08
0.11181E+08
0.11112E+08
0.11219E+08
0.11067E+08
0.11559E+08
0.10768E+08
</weights>
</event>
<event>
      7  10001  1.11453E+07  8.94427E-01 -1.00000E+00  6.07649E-01
      21    -1     0     0   502   501  0.000000000E+00  0.000000000E+00  2.627182829E+00  2.627182829E+00  0.000000000E+00  0.00000E+00  9.000E+00
      21    -1     0     0   501   511  0.000000000E+00  0.000000000E+00 -3.681177951E+00  3.681177951E+00  0.000000000E+00  0.00000E+00  9.000E+00
      23     2     1     2     0     0 -1.684880669E-01 -2.753905470E-01  2.084210550E+00  2.985834033E+00  2.113538046E+00  0.00000E+00  9.000E+00
      11     1     3     3     0     0 -7.335680321E-02  8.673987535E-01  1.405664494E+00  1.653376771E+00  5.110000000E-04  0.00000E+00  9.000E+00
     -11     1     3     3     0     0 -9.513126366E-02 -1.142789300E+00  6.785460569E-01  1.332457262E+00  5.110000000E-04  0.00000E+00  9.000E+00
       2     1     1     2   502     0  2.602381611E-01  1.793040183E-02 -3.008859426E+00  3.020145766E+00  0.000000000E+00  0.00000E+00  9.000E+00
      -2     1     1     2     0   511 -9.175009422E-02  2.574601451E-01 -1.293462468E-01  3.023809810E-01  0.000000000E+00  0.00000E+00  9.000E+00
#rwgt            2         173   24978.819356466960                3     9163917           0
<weights>
0.11145E+08
0.11135E+08
0.10850E+08
0.13533E+08
0.86938E+07
0.91702E+07
0.13910E+08
0.11205E+08
0.11083E+08
0.10874E+08
0.10889E+08
0.10978E+08
0.11054E+08
0.10901E+08
0.10896E+08
0.11220E+08
0.11172E+08
0.11396E+08
0.11401E+08
0.11398E+08
0.11376E+08
0.11413E+08
0.11442E+08
0.11276E+08
0.11338E+08
0.11289E+08
0.11113E+08
0.11365E+08
0.11297E+08
0.11383E+08
0.11425E+08
0.11161E+08
0.11212E+08
0.11141E+08
0.11166E+08
0.11241E+08
0.11064E+08
0.11042E+08
0.11175E+08
0.11143E+08
0.11148E+08
0.11169E+08
0.11121E+08
0.11430E+08
0.10880E+08
</weights>
</event>
<event>
      7  10001  1.11453E+07  1.82329E+00 -1.00000E+00  3.72029E-01
      21    -1     0     0   511   501  0.000000000E+00  0.000000000E+00  5.094359067E+01  5.094359067E+01  0.000000000E+00  0.00000E+00  9.000E+00
       4    -1     0     0   501     0  0.000000000E+00  0.000000000E+00 -1.295539194E+00  1.295539194E+00  0.000000000E+00  0.00000E+00  9.000E+00
      23     2     1     2     0     0  1.342915228E+00 -1.279844448E+00  2.998122755E+00  3.805692907E+00  1.432876592E+00  0.00000E+00  9.000E+00
      11     1     3     3     0     0  1.126537690E+00 -2.640044816E-01  9.046485973E-01  1.468732405E+00  5.110000000E-04  0.00000E+00  9.000E+00
     -11     1     3     3     0     0  2.163775384E-01 -1.015839966E+00  2.093474158E+00  2.336960502E+00  5.110000000E-04  0.00000E+00  9.000E+00
       4     1     1     2   502     0 -9.193679431E-02 -4.659879718E-02 -8.712335990E-01  8.773094129E-01  0.000000000E+00  0.00000E+00  9.000E+00
      21     1     1     2   511   502 -1.250978434E+00  1.326443245E+00  4.752116232E+01  4.755612754E+01  1.168007728E-06  0.00000E+00  9.000E+00
#rwgt            1          19   129743.28704689482                3     9164130           0
<weights>
0.11145E+08
0.12972E+08
0.94491E+07
0.12065E+08
0.97213E+07
0.11546E+08
0.10262E+08
0.11196E+08
0.11090E+08
0.10777E+08
0.10752E+08
0.10934E+08
0.10986E+08
0.10789E+08
0.10765E+08
0.11240E+08
0.11237E+08
0.11535E+08
0.11541E+08
0.11537E+08
0.11503E+08
0.11574E+08
0.11585E+08
0.11402E+08
0.11385E+08
0.11356E+08
0.11157E+08
0.11513E+08
0.11401E+08
0.11555E+08
0.11585E+08
0.11204E+08
0.11217E+08
0.11127E+08
0.11194E+08
0.11236E+08
0.11073E+08
0.11184E+08
0.11019E+08
0.11184E+08
0.11113E+08
0.11185E+08
0.11104E+08
0.11569E+08
0.10757E+08
</weights>
</event>
<event>
      6  10001 -1.11453E+07  8.94427E-01 -1.00000E+00  6.23931E-01
      -2    -1     0     0     0   502  0.000000000E+00  0.000000000E+00  1.161880635E+02  1.161880635E+02  0.000000000E+00  0.00000E+00  9.000E+00
      21    -1     0     0   502   501  0.000000000E+00  0.000000000E+00 -1.313375497E-02  1.313375497E-02  0.000000000E+00  0.00000E+00  9.000E+00
      23     2     1     2     0     0 -2.426929204E-01  3.340001618E-01  6.003645534E+01  6.006120470E+01  1.673882857E+00  0.00000E+00  9.000E+00
      11     1     3     3     0     0 -6.469975658E-02 -6.086943994E-01  3.660578564E+01  3.661090326E+01  5.110000000E-04  0.00000E+00  9.000E+00
     -11     1     3     3     0     0 -1.779931638E-01  9.426945612E-01  2.343066970E+01  2.345030143E+01  5.110000000E-04  0.00000E+00  9.000E+00
      -2     1     1     2     0   501  2.426929204E-01 -3.340001618E-01  5.613847444E+01  5.613999259E+01  0.000000000E+00  0.00000E+00  9.000E+00
#rwgt            1           7  -1059136.4900279569                3     9170527           0
<weights>
-.11145E+08
-.12263E+08
-.98272E+07
-.14912E+08
-.78743E+07
-.91658E+07
-.13909E+08
-.11171E+08
-.11120E+08
-.10825E+08
-.10815E+08
-.10962E+08
-.11007E+08
-.10842E+08
-.10826E+08
-.11225E+08
-.11210E+08
-.11460E+08
-.11502E+08
-.11490E+08
-.11437E+08
-.11499E+08
-.11519E+08
-.11411E+08
-.11328E+08
-.11286E+08
-.11355E+08
-.11433E+08
-.11370E+08
-.11477E+08
-.11512E+08
-.11183E+08
-.11217E+08
-.11138E+08
-.11177E+08
-.11208E+08
-.11101E+08
-.11130E+08
-.11086E+08
-.11166E+08
-.11128E+08
-.11185E+08
-.11104E+08
-.11504E+08
-.10815E+08
</weights>
</event>
<event>
      7  10001  1.11453E+07  1.19851E+00 -1.00000E+00  4.97168E-01
      -2    -1     0     0     0   502  0.000000000E+00  0.000000000E+00  1.376148788E-01  1.376148788E-01  0.000000000E+00  0.00000E+00  9.000E+00
      21    -1     0     0   501   511  0.000000000E+00  0.000000000E+00 -1.662449574E+02  1.662449574E+02  0.000000000E+00  0.00000E+00  9.000E+00
      23     2     1     2     0     0 -2.374646027E+00  1.551073614E+00 -7.602590242E+01  7.609399981E+01  1.521248046E+00  0.00000E+00  9.000E+00
      11     1     3     3     0     0 -1.273149093E+00  1.704530312E-01 -4.461018932E+01  4.462867861E+01  5.110000000E-04  0.00000E+00  9.000E+00
     -11     1     3     3     0     0 -1.101496934E+00  1.380620583E+00 -3.141571309E+01  3.146532120E+01  5.110000000E-04  0.00000E+00  9.000E+00
      21     1     1     2   501   502  2.350452479E+00 -2.749337592E+00 -3.354862045E+01  3.374304992E+01  6.743495762E-07  0.00000E+00  9.000E+00
      -2     1     1     2     0   511  2.419354854E-02  1.198263978E+00 -5.653281967E+01  5.654552256E+01  0.000000000E+00  0.00000E+00  9.000E+00
#rwgt            1           8   296471.69058068527                3     9173031           0
<weights>
0.11145E+08
0.11426E+08
0.10801E+08
0.12532E+08
0.95891E+07
0.10106E+08
0.12474E+08
0.11150E+08
0.11140E+08
0.11153E+08
0.11167E+08
0.11156E+08
0.11124E+08
0.11167E+08
0.11167E+08
0.11201E+08
0.11028E+08
0.11100E+08
0.11136E+08
0.11139E+08
0.11097E+08
0.11116E+08
0.11118E+08
0.11229E+08
0.11021E+08
0.11067E+08
0.11179E+08
0.11191E+08
0.11003E+08
0.11126E+08
0.11114E+08
0.11117E+08
0.11163E+08
0.11106E+08
0.11190E+08
0.11137E+08
0.11148E+08
0.11133E+08
0.11164E+08
0.11107E+08
0.11174E+08
0.11191E+08
0.11096E+08
0.11123E+08
0.11163E+08
</weights>
</event>
<event>
      6  10001  1.11453E+07  8.94427E-01 -1.00000E+00  6.06429E-01
      21    -1     0     0   502   501  0.000000000E+00  0.000000000E+00  6.175465848E+01  6.175465848E+01  0.000000000E+00  0.00000E+00  9.000E+00
      -2    -1     0     0     0   502  0.000000000E+00  0.000000000E+00 -1.204566800E+00  1.204566800E+00  0.000000000E+00  0.00000E+00  9.000E+00
      23     2     1     2     0     0 -3.423744596E-01  2.367034502E-01 -1.255157491E-01  2.282190203E+00  2.240399323E+00  0.00000E+00  9.000E+00
      11     1     3     3     0     0 -5.935235124E-01 -9.052639155E-01 -2.353844277E-01  1.107781118E+00  5.110000000E-04  0.00000E+00  9.000E+00
     -11     1     3     3     0     0  2.511490528E-01  1.141967366E+00  1.098686786E-01  1.174409085E+00  5.110000000E-04  0.00000E+00  9.000E+00
      -2     1     1     2     0   501  3.423744596E-01 -2.367034502E-01  6.067560743E+01  6.067703507E+01  0.000000000E+00  0.00000E+00  9.000E+00
#rwgt            1          14   12743985.305214055                3     9175267           0
<weights>
0.11145E+08
0.11538E+08
0.10623E+08
0.12617E+08
0.95710E+07
0.10185E+08
0.12351E+08
0.11027E+08
0.11275E+08
0.10829E+08
0.10798E+08
0.10977E+08
0.10973E+08
0.10839E+08
0.10811E+08
0.11177E+08
0.11292E+08
0.11496E+08
0.11469E+08
0.11454E+08
0.11476E+08
0.11520E+08
0.11520E+08
0.11414E+08
0.11306E+08
0.11372E+08
0.11108E+08
0.11487E+08
0.11312E+08
0.11506E+08
0.11517E+08
0.11155E+08
0.11250E+08
0.11147E+08
0.11173E+08
0.11033E+08
0.11288E+08
0.11157E+08
0.11056E+08
0.11168E+08
0.11123E+08
0.11217E+08
0.11069E+08
0.11512E+08
0.10810E+08
</weights>
</event>
<event>
      7  10001  1.11453E+07  8.94427E-01 -1.00000E+00  6.07649E-01
      21    -1     0     0   511   502  0.000000000E+00  0.000000000E+00  1.677616188E+00  1.677616188E+00  0.000000000E+00  0.00000E+00  9.000E+00
       4    -1     0     0   501     0  0.000000000E+00  0.000000000E+00 -5.371131351E+01  5.371131351E+01  0.000000000E+00  0.00000E+00  9.000E+00
      23     2     1     2     0     0 -3.140476508E-01 -1.935986785E-01 -5.310217372E+01  5.324328185E+01  3.856177191E+00  0.00000E+00  9.000E+00
      11     1     3     3     0     0 -1.953610330E+00  6.100241735E-01 -2.739369456E+01  2.747004231E+01  5.110000000E-04  0.00000E+00  9.000E+00
     -11     1     3     3     0     0  1.639562679E+00 -8.036228519E-01 -2.570847916E+01  2.577323954E+01  5.110000000E-04  0.00000E+00  9.000E+00
      21     1     1     2   501   502  3.135111422E-01 -7.059791084E-02  1.557237694E+00  1.590051111E+00  1.942873718E-07  0.00000E+00  9.000E+00
       4     1     1     2   511     0  5.365085971E-04  2.641965893E-01 -4.887613003E-01  5.555967371E-01  0.000000000E+00  0.00000E+00  9.000E+00
#rwgt            2         196   8782330.0525319017                3     9243618           0
<weights>
0.11145E+08
0.10805E+08
0.11273E+08
0.13132E+08
0.90323E+07
0.91702E+07
0.13910E+08
0.11226E+08
0.11066E+08
0.10981E+08
0.11068E+08
0.10981E+08
0.11203E+08
0.11063E+08
0.11076E+08
0.11176E+08
0.11089E+08
0.11201E+08
0.11180E+08
0.11174E+08
0.11203E+08
0.11194E+08
0.11201E+08
0.11134E+08
0.11239E+08
0.11222E+08
0.11093E+08
0.11188E+08
0.11113E+08
0.11135E+08
0.11197E+08
0.11085E+08
0.11225E+08
0.11170E+08
0.11117E+08
0.11296E+08
0.11009E+08
0.10777E+08
0.11553E+08
0.11047E+08
0.11236E+08
0.11112E+08
0.11181E+08
0.11245E+08
0.11034E+08
</weights>
</event>
<event>
      6  10001 -1.11453E+07  8.94427E-01 -1.00000E+00  2.42481E-01
       2    -1     0     0   501     0  0.000000000E+00  0.000000000E+00  6.753311001E+02  6.753311001E+02  0.000000000E+00  0.00000E+00  9.000E+00
      21    -1     0     0   502   501  0.000000000E+00  0.000000000E+00 -8.751081443E-04  8.751081443E-04  0.000000000E+00  0.00000E+00  9.000E+00
      23     2     1     2     0     0 -1.626737067E-02  2.822970603E-01  6.088973907E+02  6.088985391E+02  1.148305204E+00  0.00000E+00  9.000E+00
      11     1     3     3     0     0 -4.730938650E-01 -2.004910497E-01  2.405613264E+02  2.405618751E+02  5.110000000E-04  0.00000E+00  9.000E+00
     -11     1     3     3     0     0  4.568264943E-01  4.827881100E-01  3.683360643E+02  3.683366640E+02  5.110000000E-04  0.00000E+00  9.000E+00
       2     1     1     2   502     0  1.626737067E-02 -2.822970603E-01  6.643283433E+01  6.643343611E+01  0.000000000E+00  0.00000E+00  9.000E+00
#rwgt            1          24  -36511971.507349156                3     9243736           0
<weights>
-.11145E+08
-.13332E+08
-.84635E+07
-.16225E+08
-.67820E+07
-.91586E+07
-.13909E+08
-.11185E+08
-.11106E+08
-.10862E+08
-.10871E+08
-.10977E+08
-.11037E+08
-.10888E+08
-.10879E+08
-.11220E+08
-.11179E+08
-.11406E+08
-.11434E+08
-.11425E+08
-.11387E+08
-.11434E+08
-.11458E+08
-.11338E+08
-.11318E+08
-.11265E+08
-.11268E+08
-.11373E+08
-.11324E+08
-.11405E+08
-.11446E+08
-.11165E+08
-.11216E+08
-.11143E+08
-.11166E+08
-.11220E+08
-.11087E+08
-.11067E+08
-.11164E+08
-.11148E+08
-.11144E+08
-.11177E+08
-.11113E+08
-.11447E+08
-.10865E+08
</weights>
</event>
<event>
      6  10001 -1.11453E+07  8.94427E-01 -1.00000E+00  5.50587E-01
      21    -1     0     0   502   501  0.000000000E+00  0.000000000E+00  4.042202813E+01  4.042202813E+01  0.000000000E+00  0.00000E+00  9.000E+00
       1    -1     0     0   501     0  0.000000000E+00  0.000000000E+00 -2.186103540E-02  2.186103540E-02  0.000000000E+00  0.00000E+00  9.000E+00
      23     2     1     2     0     0 -1.573142462E-01 -6.102914486E-01  2.791667774E+01  2.794450078E+01  1.075650800E+00  0.00000E+00  9.000E+00
      11     1     3     3     0     0 -1.867066091E-01 -7.774678534E-01  2.702412972E+01  2.703595574E+01  5.110000000E-04  0.00000E+00  9.000E+00
     -11     1     3     3     0     0  2.939236285E-02  1.671764048E-01  8.925480164E-01  9.085450369E-01  5.110000000E-04  0.00000E+00  9.000E+00
       1     1     1     2   502     0  1.573142462E-01  6.102914486E-01  1.248348936E+01  1.249938839E+01  0.000000000E+00  0.00000E+00  9.000E+00
#rwgt            1          16  -268727.36127099162                3     9246084           0
<weights>
-.11145E+08
-.12845E+08
-.92387E+07
-.15622E+08
-.74029E+07
-.91641E+07
-.13909E+08
-.11132E+08
-.11174E+08
-.10817E+08
-.10800E+08
-.10961E+08
-.10996E+08
-.10832E+08
-.10812E+08
-.11225E+08
-.11222E+08
-.11479E+08
-.11510E+08
-.11497E+08
-.11456E+08
-.11517E+08
-.11532E+08
-.11431E+08
-.11323E+08
-.11298E+08
-.11347E+08
-.11450E+08
-.11379E+08
-.11497E+08
-.11527E+08
-.11184E+08
-.11221E+08
-.11141E+08
-.11177E+08
-.11181E+08
-.11133E+08
-.11151E+08
-.11066E+08
-.11169E+08
-.11125E+08
-.11191E+08
-.11098E+08
-.11517E+08
-.10804E+08
</weights>
</event>
<event>
      6  10001 -1.11453E+07  8.94427E-01 -1.00000E+00  3.48176E-01
       2    -1     0     0   501     0  0.000000000E+00  0.000000000E+00  1.702744299E+02  1.702744299E+02  0.000000000E+00  0.00000E+00  9.000E+00
      21    -1     0     0   502   501  0.000000000E+00  0.000000000E+00 -1.795687072E-02  1.795687072E-02  0.000000000E+00  0.00000E+00  9.000E+00
      23     2     1     2     0     0  1.924234420E-01  7.377629588E-01  1.589577772E+02  1.589679951E+02  1.633153082E+00  0.00000E+00  9.000E+00
      11     1     3     3     0     0  4.645190177E-01  1.169697461E+00  1.256952688E+02  1.257015695E+02  5.110000000E-04  0.00000E+00  9.000E+00
     -11     1     3     3     0     0 -2.720955758E-01 -4.319345019E-01  3.326250843E+01  3.326642557E+01  5.110000000E-04  0.00000E+00  9.000E+00
       2     1     1     2   502     0 -1.924234420E-01 -7.377629588E-01  1.129869583E+01  1.132439174E+01  0.000000000E+00  0.00000E+00  9.000E+00
#rwgt            1          24  -21010031.867013756                3     9246792           0
<weights>
-.11146E+08
-.12462E+08
-.96102E+07
-.15185E+08
-.77015E+07
-.91478E+07
-.13909E+08
-.11173E+08
-.11121E+08
-.10824E+08
-.10814E+08
-.10963E+08
-.11007E+08
-.10842E+08
-.10825E+08
-.11227E+08
-.11212E+08
-.11463E+08
-.11505E+08
-.11493E+08
-.11440E+08
-.11503E+08
-.11522E+08
-.11413E+08
-.11330E+08
-.11288E+08
-.11354E+08
-.11436E+08
-.11373E+08
-.11481E+08
-.11515E+08
-.11185E+08
-.11218E+08
-.11139E+08
-.11179E+08
-.11210E+08
-.11103E+08
-.11134E+08
-.11085E+08
-.11168E+08
-.11129E+08
-.11186E+08
-.11105E+08
-.11507E+08
-.10815E+08
</weights>
</event>
<event>
      6  10001 -1.11453E+07  8.94427E-01 -1.00000E+00  2.99955E-01
       2    -1     0     0   501     0  0.000000000E+00  0.000000000E+00  7.198430155E+01  7.198430155E+01  0.000000000E+00  0.00000E+00  9.000E+00
      -2    -1     0     0     0   502  0.000000000E+00  0.000000000E+00 -9.820133944E-03  9.820133944E-03  0.000000000E+00  0.00000E+00  9.000E+00
      23     2     1     2     0     0 -1.837582713E-01 -2.028081152E-01  5.915962000E+01  5.917633829E+01  1.379665051E+00  0.00000E+00  9.000E+00
      11     1     3     3     0     0  1.316531018E-02 -6.003473872E-01  1.232728875E+01  1.234190579E+01  5.110000000E-04  0.00000E+00  9.000E+00
     -11     1     3     3     0     0 -1.969235815E-01  3.975392720E-01  4.683233125E+01  4.683443249E+01  5.110000000E-04  0.00000E+00  9.000E+00
      21     1     1     2   501   502  1.837582713E-01  2.028081152E-01  1.281486142E+01  1.281778340E+01  1.685873940E-07  0.00000E+00  9.000E+00
#rwgt            1          23  -2906455.1491172276                3     9247468           0
<weights>
-.11145E+08
-.12284E+08
-.98136E+07
-.14919E+08
-.78627E+07
-.91780E+07
-.13911E+08
-.11153E+08
-.11145E+08
-.10819E+08
-.10804E+08
-.10961E+08
-.11000E+08
-.10835E+08
-.10815E+08
-.11224E+08
-.11220E+08
-.11472E+08
-.11511E+08
-.11498E+08
-.11448E+08
-.11512E+08
-.11529E+08
-.11423E+08
-.11326E+08
-.11293E+08
-.11345E+08
-.11446E+08
-.11376E+08
-.11491E+08
-.11523E+08
-.11184E+08
-.11219E+08
-.11137E+08
-.11180E+08
-.11195E+08
-.11117E+08
-.11144E+08
-.11073E+08
-.11169E+08
-.11125E+08
-.11188E+08
-.11100E+08
-.11514E+08
-.10807E+08
</weights>
</event>
<event>
      6  10001 -1.11453E+07  8.94427E-01 -1.00000E+00  3.80784E-01
      21    -1     0     0   502   501  0.000000000E+00  0.000000000E+00  1.674403762E-03  1.674403762E-03  0.000000000E+00  0.00000E+00  9.000E+00
       2    -1     0     0   501     0  0.000000000E+00  0.000000000E+00 -9.856374090E+02  9.856374090E+02  0.000000000E+00  0.00000E+00  9.000E+00
      23     2     1     2     0     0 -2.548086866E-01  8.056015175E-02 -9.717652168E+02  9.717659914E+02  1.197526670E+00  0.00000E+00  9.000E+00
      11     1     3     3     0     0 -1.511430073E-01 -5.138441388E-01 -6.413831554E+02  6.413833791E+02  5.110000000E-04  0.00000E+00  9.000E+00
     -11     1     3     3     0     0 -1.036656793E-01  5.944042906E-01 -3.303820614E+02  3.303826124E+02  5.110000000E-04  0.00000E+00  9.000E+00
       2     1     1     2   502     0  2.548086866E-01 -8.056015175E-02 -1.387051762E+01  1.387309181E+01  0.000000000E+00  0.00000E+00  9.000E+00
#rwgt            1          17  -47330731.722248308                3     9248025           0
<weights>
-.11145E+08
-.10371E+08
-.12015E+08
-.12605E+08
-.96272E+07
-.91702E+07
-.13910E+08
-.11140E+08
-.11151E+08
-.11164E+08
-.11132E+08
-.10900E+08
-.11418E+08
-.11151E+08
-.11144E+08
-.10699E+08
-.11808E+08
-.11610E+08
-.10522E+08
-.10415E+08
-.11680E+08
-.11134E+08
-.11153E+08
-.10877E+08
-.11393E+08
-.11737E+08
-.10797E+08
-.10470E+08
-.11954E+08
-.11044E+08
-.11217E+08
-.11247E+08
-.11039E+08
-.11866E+08
-.10307E+08
-.11027E+08
-.11255E+08
-.11106E+08
-.11199E+08
-.11355E+08
-.10962E+08
-.11109E+08
-.11183E+08
-.11141E+08
-.11150E+08
</weights>
</event>
<event>
      7  10001  1.11453E+07  8.83831E+00 -1.00000E+00  2.01565E-01
      21    -1     0     0   502   501  0.000000000E+00  0.000000000E+00  1.199046679E-01  1.199046679E-01  0.000000000E+00  0.00000E+00  9.000E+00
      -4    -1     0     0     0   502  0.000000000E+00  0.000000000E+00 -2.167797840E+02  2.167797840E+02  0.000000000E+00  0.00000E+00  9.000E+00
      23     2     1     2     0     0 -3.999297668E-01 -2.103099854E-01 -2.092990754E+02  2.093041215E+02  1.381357746E+00  0.00000E+00  9.000E+00
      11     1     3     3     0     0 -5.186630323E-01 -4.144160767E-01 -2.022548353E+02  2.022559248E+02  5.110000000E-04  0.00000E+00  9.000E+00
     -11     1     3     3     0     0  1.187332654E-01  2.041060913E-01 -7.044240134E+00  7.048196664E+00  5.110000000E-04  0.00000E+00  9.000E+00
      -4     1     1     2     0   511  3.461579430E-02 -1.730713453E-01 -6.873959469E+00  6.876225034E+00  0.000000000E+00  0.00000E+00  9.000E+00
      21     1     1     2   511   501  3.653139725E-01  3.833813307E-01 -4.868444696E-01  7.193421167E-01  3.771936911E-07  0.00000E+00  9.000E+00
#rwgt            2         154   1971807.9431747380                3     9253679           0
<weights>
0.11145E+08
0.11092E+08
0.10927E+08
0.13480E+08
0.87551E+07
0.91702E+07
0.13910E+08
0.10948E+08
0.11337E+08
0.11708E+08
0.11466E+08
0.11177E+08
0.11613E+08
0.11593E+08
0.11558E+08
0.11058E+08
0.11058E+08
0.10757E+08
0.10680E+08
0.10686E+08
0.10785E+08
0.10726E+08
0.10627E+08
0.11118E+08
0.10596E+08
0.10767E+08
0.11297E+08
0.10840E+08
0.10895E+08
0.10815E+08
0.10702E+08
0.11235E+08
0.10918E+08
0.11059E+08
0.11226E+08
0.10993E+08
0.11272E+08
0.11545E+08
0.10767E+08
0.10934E+08
0.11345E+08
0.11009E+08
0.11291E+08
0.10668E+08
0.11592E+08
</weights>
</event>
<event>
      6  10001 -1.11453E+07  8.94427E-01 -1.00000E+00  3.98796E-01
       2    -1     0     0   501     0  0.000000000E+00  0.000000000E+00  8.166839375E+02  8.166839375E+02  0.000000000E+00  0.00000E+00  9.000E+00
      21    -1     0     0   502   501  0.000000000E+00  0.000000000E+00 -1.694230712E-03  1.694230712E-03  0.000000000E+00  0.00000E+00  9.000E+00
      23     2     1     2     0     0  4.853984811E-01  5.989979943E-01  6.490056706E+02  6.490072866E+02  1.226031405E+00  0.00000E+00  9.000E+00
      11     1     3     3     0     0 -3.067658852E-01 -1.120413209E-01  8.798369626E+01  8.798430238E+01  5.110000000E-04  0.00000E+00  9.000E+00
     -11     1     3     3     0     0  7.921643664E-01  7.110393152E-01  5.610219743E+02  5.610229842E+02  5.110000000E-04  0.00000E+00  9.000E+00
       2     1     1     2   502     0 -4.853984811E-01 -5.989979943E-01  1.676765727E+02  1.676783452E+02  0.000000000E+00  0.00000E+00  9.000E+00
#rwgt            1          24  -40766015.596819699                3     9253778           0
<weights>
-.11145E+08
-.11320E+08
-.10789E+08
-.13776E+08
-.86452E+07
-.91585E+07
-.13909E+08
-.11172E+08
-.11119E+08
-.10826E+08
-.10817E+08
-.10963E+08
-.11008E+08
-.10844E+08
-.10827E+08
-.11225E+08
-.11209E+08
-.11459E+08
-.11500E+08
-.11488E+08
-.11435E+08
-.11497E+08
-.11517E+08
-.11407E+08
-.11328E+08
-.11286E+08
-.11349E+08
-.11431E+08
-.11369E+08
-.11475E+08
-.11510E+08
-.11182E+08
-.11217E+08
-.11138E+08
-.11177E+08
-.11209E+08
-.11100E+08
-.11128E+08
-.11088E+08
-.11165E+08
-.11129E+08
-.11185E+08
-.11104E+08
-.11502E+08
-.10817E+08
</weights>
</event>
<event>
      7  10001  1.11453E+07  1.11727E+00 -1.00000E+00  5.21458E-01
       3    -1     0     0   502     0  0.000000000E+00  0.000000000E+00  1.251702780E+00  1.251702780E+00  0.000000000E+00  0.00000E+00  9.000E+00
       2    -1     0     0   501     0  0.000000000E+00  0.000000000E+00 -3.646510171E+01  3.646510171E+01  0.000000000E+00  0.00000E+00  9.000E+00
      23     2     1     2     0     0  4.832718136E-01  1.117866993E+00 -1.593234336E+01  1.606664590E+01  1.677607587E+00  0.00000E+00  9.000E+00
      11     1     3     3     0     0 -3.404636418E-01 -2.730628166E-01 -2.558521835E+00  2.595479346E+00  5.110000000E-04  0.00000E+00  9.000E+00
     -11     1     3     3     0     0  8.237354554E-01  1.390929810E+00 -1.337382153E+01  1.347116655E+01  5.110000000E-04  0.00000E+00  9.000E+00
       2     1     1     2   502     0  6.321426264E-01 -1.053566019E+00 -2.017924889E+01  2.021661919E+01  0.000000000E+00  0.00000E+00  9.000E+00
       3     1     1     2   501     0 -1.115414440E+00 -6.430097390E-02  8.981933181E-01  1.433539405E+00  0.000000000E+00  0.00000E+00  9.000E+00
#rwgt            1          17   434224.77213531936                3     9255509           0
<weights>
0.11145E+08
0.17028E+08
0.60217E+07
0.11158E+08
0.10189E+08
0.15372E+08
0.50010E+07
0.11199E+08
0.11026E+08
0.10856E+08
0.10916E+08
0.11151E+08
0.10781E+08
0.10890E+08
0.10907E+08
0.10888E+08
0.11524E+08
0.11045E+08
0.11724E+08
0.11754E+08
0.11015E+08
0.11342E+08
0.11350E+08
0.11330E+08
0.11215E+08
0.11193E+08
0.11094E+08
0.11658E+08
0.10723E+08
0.11347E+08
0.11278E+08
0.11167E+08
0.11124E+08
0.10928E+08
0.11392E+08
0.10935E+08
0.11297E+08
0.10932E+08
0.11228E+08
0.11032E+08
0.11172E+08
0.11275E+08
0.10940E+08
0.11348E+08
0.10892E+08
</weights>
</event>
<event>
      7  10001  1.11453E+07  5.30223E+00 -1.00000E+00  2.32720E-01
      21    -1     0     0   502   501  0.000000000E+00  0.000000000E+00  2.906230093E+01  2.906230093E+01  0.000000000E+00  0.00000E+00  9.000E+00
       4    -1     0     0   501     0  0.000000000E+00  0.000000000E+00 -3.371111134E-01  3.371111134E-01  0.000000000E+00  0.00000E+00  9.000E+00
      23     2     1     2     0     0  4.813606925E-02  3.827650756E-01  6.593346216E-01  1.273078696E+00  1.018420855E+00  0.00000E+00  9.000E+00
      11     1     3     3     0     0  5.305473144E-01  2.099372546E-01  2.803712399E-01  6.357376794E-01  5.110000000E-04  0.00000E+00  9.000E+00
     -11     1     3     3     0     0 -4.824112452E-01  1.728278210E-01  3.789633818E-01  6.373410163E-01  5.110000000E-04  0.00000E+00  9.000E+00
       4     1     1     2   511     0 -2.721097672E-01 -7.465404670E-02  6.594413891E-01  7.172725407E-01  0.000000000E+00  0.00000E+00  9.000E+00
      21     1     1     2   502   511  2.239736979E-01 -3.081110289E-01  2.740641380E+01  2.740906080E+01  0.000000000E+00  0.00000E+00  9.000E+00
#rwgt            2         195   1769563.3702162951                3     9267575           0
<weights>
0.11145E+08
0.11158E+08
0.10895E+08
0.13562E+08
0.87294E+07
0.91702E+07
0.13910E+08
0.11190E+08
0.11097E+08
0.10808E+08
0.10794E+08
0.10951E+08
0.11003E+08
0.10824E+08
0.10805E+08
0.11233E+08
0.11217E+08
0.11489E+08
0.11506E+08
0.11500E+08
0.11462E+08
0.11525E+08
0.11541E+08
0.11385E+08
0.11357E+08
0.11318E+08
0.11205E+08
0.11463E+08
0.11377E+08
0.11503E+08
0.11536E+08
0.11191E+08
0.11216E+08
0.11133E+08
0.11184E+08
0.11227E+08
0.11082E+08
0.11148E+08
0.11065E+08
0.11172E+08
0.11123E+08
0.11183E+08
0.11106E+08
0.11526E+08
0.10796E+08
</weights>
</event>
<event>
      7  10001  1.11453E+07  1.48622E+00 -1.00000E+00  4.30171E-01
      21    -1     0     0   502   512  0.000000000E+00  0.000000000E+00  1.001304529E+02  1.001304529E+02  0.000000000E+00  0.00000E+00  9.000E+00
      -1    -1     0     0     0   502  0.000000000E+00  0.000000000E+00 -3.326209658E+00  3.326209658E+00  0.000000000E+00  0.00000E+00  9.000E+00
      23     2     1     2     0     0  2.061874555E-01 -6.014119603E-02 -2.275941730E+00  2.567401547E+00  1.168550263E+00  0.00000E+00  9.000E+00
      11     1     3     3     0     0 -4.881920491E-01 -2.927549538E-02 -8.378103642E-01  9.701108178E-01  5.110000000E-04  0.00000E+00  9.000E+00
     -11     1     3     3     0     0  6.943795046E-01 -3.086570065E-02 -1.438131366E+00  1.597290730E+00  5.110000000E-04  0.00000E+00  9.000E+00
      -1     1     1     2     0   501  4.927531647E-01  1.371756845E+00 -3.081689309E-01  1.489795494E+00  0.000000000E+00  0.00000E+00  9.000E+00
      21     1     1     2   501   512 -6.989406202E-01 -1.311615649E+00  9.938835388E+01  9.939946549E+01  1.907348633E-06  0.00000E+00  9.000E+00
#rwgt            1          15   206434.42349538309                3     9268187           0
<weights>
0.11145E+08
0.14880E+08
0.77235E+07
0.11975E+08
0.96731E+07
0.13056E+08
0.79452E+07
0.10902E+08
0.11393E+08
0.10789E+08
0.10714E+08
0.10982E+08
0.10885E+08
0.10781E+08
0.10734E+08
0.11109E+08
0.11446E+08
0.11599E+08
0.11518E+08
0.11491E+08
0.11582E+08
0.11616E+08
0.11596E+08
0.11526E+08
0.11287E+08
0.11506E+08
0.11010E+08
0.11618E+08
0.11285E+08
0.11618E+08
0.11596E+08
0.11132E+08
0.11300E+08
0.11170E+08
0.11162E+08
0.10772E+08
0.11559E+08
0.11245E+08
0.10937E+08
0.11192E+08
0.11096E+08
0.11282E+08
0.11000E+08
0.11585E+08
0.10747E+08
</weights>
</event>
<event>
      7  10001  1.11453E+07  1.25491E+01 -1.00000E+00  1.84654E-01
      21    -1     0     0   502   501  0.000000000E+00  0.000000000E+00  9.395405831E-01  9.395405831E-01  0.000000000E+00  0.00000E+00  9.000E+00
       2    -1     0     0   501     0  0.000000000E+00  0.000000000E+00 -4.328395069E+01  4.328395069E+01  0.000000000E+00  0.00000E+00  9.000E+00
      23     2     1     2     0     0  1.617545246E-02 -3.701421695E-01 -3.885979398E+01  3.887720068E+01  1.102668241E+00  0.00000E+00  9.000E+00
      11     1     3     3     0     0 -4.278548213E-01  1.731108454E-01 -1.562364854E+01  1.563046452E+01  5.110000000E-04  0.00000E+00  9.000E+00
     -11     1     3     3     0     0  4.440302738E-01 -5.432530149E-01 -2.323614544E+01  2.324673616E+01  5.110000000E-04  0.00000E+00  9.000E+00
       2     1     1     2   511     0  9.224722512E-02  9.387353716E-02 -4.390786161E+00  4.392758234E+00  0.000000000E+00  0.00000E+00  9.000E+00
      21     1     1     2   502   511 -1.084226776E-01  2.762686323E-01  9.061700355E-01  9.535323631E-01  6.448089040E-07  0.00000E+00  9.000E+00
#rwgt            2         189   15058773.225717546                3     9275407           0
<weights>
0.11145E+08
0.10825E+08
0.11309E+08
0.13157E+08
0.90613E+07
0.91702E+07
0.13910E+08
0.11191E+08
0.11100E+08
0.11058E+08
0.11101E+08
0.11142E+08
0.11052E+08
0.11092E+08
0.11100E+08
0.11096E+08
0.11210E+08
0.11087E+08
0.11320E+08
0.11331E+08
0.11077E+08
0.11190E+08
0.11188E+08
0.11236E+08
0.11122E+08
0.11131E+08
0.11148E+08
0.11326E+08
0.10937E+08
0.11186E+08
0.11167E+08
0.11144E+08
0.11158E+08
0.11068E+08
0.11253E+08
0.11119E+08
0.11172E+08
0.11017E+08
0.11275E+08
0.11079E+08
0.11199E+08
0.11208E+08
0.11078E+08
0.11203E+08
0.11085E+08
</weights>
</event>
<event>
      7  10001 -1.11453E+07  1.27711E+00 -1.00000E+00  4.76269E-01
      -2    -1     0     0     0   502  0.000000000E+00  0.000000000E+00  1.202360852E+02  1.202360852E+02  0.000000000E+00  0.00000E+00  9.000E+00
       2    -1     0     0   502     0  0.000000000E+00  0.000000000E+00 -6.755778743E-01  6.755778743E-01  0.000000000E+00  0.00000E+00  9.000E+00
      23     2     1     2     0     0  3.239287381E-01 -7.968661138E-01  1.114815661E+02  1.115111592E+02  2.420562665E+00  0.00000E+00  9.000E+00
      11     1     3     3     0     0 -9.436883135E-01  1.581120821E-02  6.049998958E+01  6.050735110E+01  5.110000000E-04  0.00000E+00  9.000E+00
     -11     1     3     3     0     0  1.267617052E+00 -8.126773220E-01  5.098157653E+01  5.100380812E+01  5.110000000E-04  0.00000E+00  9.000E+00
      -2     1     1     2     0   501 -6.582846919E-01 -4.357010882E-01  8.084929673E+00  8.123377499E+00  0.000000000E+00  0.00000E+00  9.000E+00
       2     1     1     2   501     0  3.343559538E-01  1.232567202E+00 -5.988474846E-03  1.277126334E+00  0.000000000E+00  0.00000E+00  9.000E+00
#rwgt            1           7  -387617.97172580485                3     9275582           0
<weights>
-.11145E+08
-.52389E+07
-.17124E+08
-.14853E+08
-.83492E+07
-.35028E+07
-.22610E+08
-.11353E+08
-.10914E+08
-.11134E+08
-.11301E+08
-.11078E+08
-.11280E+08
-.11220E+08
-.11286E+08
-.11186E+08
-.10941E+08
-.11007E+08
-.10891E+08
-.10922E+08
-.11013E+08
-.10926E+08
-.11020E+08
-.10640E+08
-.11325E+08
-.11176E+08
-.10126E+08
-.10935E+08
-.10937E+08
-.10847E+08
-.10941E+08
-.11023E+08
-.11204E+08
-.11181E+08
-.11077E+08
-.11363E+08
-.10920E+08
-.10519E+08
-.11737E+08
-.11011E+08
-.11264E+08
-.11101E+08
-.11192E+08
-.11021E+08
-.11236E+08
</weights>
</event>
<event>
      7  10001  1.11453E+07  1.34630E+00 -1.00000E+00  4.59810E-01
       2    -1     0     0   501     0  0.000000000E+00  0.000000000E+00  1.199868974E+01  1.199868974E+01  0.000000000E+00  0.00000E+00  9.000E+00
      21    -1     0     0   511   501  0.000000000E+00  0.000000000E+00 -9.174251270E+02  9.174251270E+02  0.000000000E+00  0.00000E+00  9.000E+00
      23     2     1     2     0     0  3.647681929E-01 -8.273194190E-01  1.112911832E+01  1.170040974E+01  3.496398183E+00  0.00000E+00  9.000E+00
      11     1     3     3     0     0  5.543085941E-01  1.013661871E+00  1.491070776E+00  1.886282250E+00  5.110000000E-04  0.00000E+00  9.000E+00
     -11     1     3     3     0     0 -1.895404012E-01 -1.840981290E+00  9.638047540E+00  9.814127487E+00  5.110000000E-04  0.00000E+00  9.000E+00
       2     1     1     2   502     0  4.948685134E-01 -2.088076827E-01  4.598114727E-01  7.070516844E-01  0.000000000E+00  0.00000E+00  9.000E+00
      21     1     1     2   511   502 -8.596367064E-01  1.036127102E+00 -9.170153670E+02  9.170163553E+02  2.157918644E-05  0.00000E+00  9.000E+00
#rwgt            1          24   885942.73426081473                3     9309935           0
<weights>
0.11145E+08
0.15274E+08
0.70074E+07
0.12606E+08
0.93109E+07
0.13110E+08
0.78625E+07
0.11154E+08
0.11134E+08
0.10716E+08
0.10653E+08
0.10915E+08
0.10924E+08
0.10714E+08
0.10672E+08
0.11249E+08
0.11286E+08
0.11624E+08
0.11668E+08
0.11655E+08
0.11587E+08
0.11691E+08
0.11686E+08
0.11573E+08
0.11367E+08
0.11350E+08
0.11416E+08
0.11606E+08
0.11501E+08
0.11685E+08
0.11702E+08
0.11238E+08
0.11219E+08
0.11121E+08
0.11212E+08
0.11191E+08
0.11125E+08
0.11322E+08
0.10882E+08
0.11217E+08
0.11084E+08
0.11207E+08
0.11080E+08
0.11667E+08
0.10673E+08
</weights>
</event>
<event>
      7  10001  1.11453E+07  5.99567E+00 -1.00000E+00  2.24427E-01
      21    -1     0     0   502   501  0.000000000E+00  0.000000000E+00  6.785756999E+01  6.785756999E+01  0.000000000E+00  0.00000E+00  9.000E+00
       2    -1     0     0   501     0  0.000000000E+00  0.000000000E+00 -2.893130794E-01  2.893130794E-01  0.000000000E+00  0.00000E+00  9.000E+00
      23     2     1     2     0     0  1.894722897E-01 -8.726992539E-01  4.813844843E+00  5.105276363E+00  1.446803662E+00  0.00000E+00  9.000E+00
      11     1     3     3     0     0 -5.186824269E-01 -6.843607891E-01  1.678046681E+00  1.884999224E+00  5.110000000E-04  0.00000E+00  9.000E+00
     -11     1     3     3     0     0  7.081547166E-01 -1.883384649E-01  3.135798161E+00  3.220277139E+00  5.110000000E-04  0.00000E+00  9.000E+00
       2     1     1     2   511     0  1.834728703E+00 -1.579383397E+00  3.903893890E+01  3.911392887E+01  0.000000000E+00  0.00000E+00  9.000E+00
      21     1     1     2   502   511 -2.024200993E+00  2.452082651E+00  2.371547317E+01  2.392767783E+01  0.000000000E+00  0.00000E+00  9.000E+00
#rwgt            1          17   2889367.8540220456                3     9383630           0
<weights>
0.11145E+08
0.11578E+08
0.10619E+08
0.12576E+08
0.95711E+07
0.10221E+08
0.12296E+08
0.11023E+08
0.11298E+08
0.10822E+08
0.10792E+08
0.10974E+08
0.10975E+08
0.10833E+08
0.10805E+08
0.11192E+08
0.11275E+08
0.11489E+08
0.11499E+08
0.11485E+08
0.11467E+08
0.11527E+08
0.11528E+08
0.11433E+08
0.11307E+08
0.11333E+08
0.11208E+08
0.11484E+08
0.11339E+08
0.11513E+08
0.11526E+08
0.11169E+08
0.11238E+08
0.11135E+08
0.11186E+08
0.11081E+08
0.11241E+08
0.11166E+08
0.11053E+08
0.11169E+08
0.11123E+08
0.11207E+08
0.11080E+08
0.11519E+08
0.10803E+08
</weights>
</event>
<event>
      6  10001 -1.11453E+07  8.94427E-01 -1.00000E+00  3.09306E-01
       2    -1     0     0   501     0  0.000000000E+00  0.000000000E+00  4.202226553E+02  4.202226553E+02  0.000000000E+00  0.00000E+00  9.000E+00
      21    -1     0     0   502   501  0.000000000E+00  0.000000000E+00 -7.499938278E-03  7.499938278E-03  0.000000000E+00  0.00000E+00  9.000E+00
      23     2     1     2     0     0  1.039243853E+00  4.226029367E-01  3.602084928E+02  3.602130063E+02  1.411723955E+00  0.00000E+00  9.000E+00
      11     1     3     3     0     0  1.148818620E+00  5.436352236E-01  3.542423227E+02  3.542446026E+02  5.110000000E-04  0.00000E+00  9.000E+00
     -11     1     3     3     0     0 -1.095747665E-01 -1.210322870E-01  5.966170141E+00  5.968403627E+00  5.110000000E-04  0.00000E+00  9.000E+00
       2     1     1     2   502     0 -1.039243853E+00 -4.226029367E-01  6.000666254E+01  6.001714897E+01  0.000000000E+00  0.00000E+00  9.000E+00
#rwgt            1          24  -16167195.270440634                3     9390428           0
<weights>
-.11145E+08
-.12097E+08
-.99790E+07
-.14709E+08
-.79959E+07
-.91668E+07
-.13909E+08
-.11176E+08
-.11114E+08
-.10830E+08
-.10824E+08
-.10964E+08
-.11012E+08
-.10849E+08
-.10834E+08
-.11225E+08
-.11205E+08
-.11452E+08
-.11490E+08
-.11479E+08
-.11430E+08
-.11489E+08
-.11510E+08
-.11393E+08
-.11329E+08
-.11285E+08
-.11317E+08
-.11424E+08
-.11362E+08
-.11465E+08
-.11501E+08
-.11180E+08
-.11216E+08
-.11138E+08
-.11176E+08
-.11212E+08
-.11097E+08
-.11119E+08
-.11097E+08
-.11163E+08
-.11130E+08
-.11183E+08
-.11106E+08
-.11495E+08
-.10823E+08
</weights>
</event>
<event>
      7  10001  1.11453E+07  3.03454E+00 -1.00000E+00  2.90844E-01
      21    -1     0     0   502   511  0.000000000E+00  0.000000000E+00  4.187478097E+00  4.187478097E+00  0.000000000E+00  0.00000E+00  9.000E+00
       4    -1     0     0   501     0  0.000000000E+00  0.000000000E+00 -6.876734824E+01  6.876734824E+01  0.000000000E+00  0.00000E+00  9.000E+00
      23     2     1     2     0     0  1.474082926E+00  3.157801902E-01 -4.949815347E+01  4.953322329E+01  1.095616605E+00  0.00000E+00  9.000E+00
      11     1     3     3     0     0  1.621423869E+00  3.689826893E-01 -4.743198748E+01  4.746112725E+01  5.110000000E-04  0.00000E+00  9.000E+00
     -11     1     3     3     0     0 -1.473409421E-01 -5.320249914E-02 -2.066165990E+00  2.072096044E+00  5.110000000E-04  0.00000E+00  9.000E+00
       4     1     1     2   502     0 -4.115574387E+00 -1.809414669E+00 -1.839047656E+01  1.893202477E+01  0.000000000E+00  0.00000E+00  9.000E+00
      21     1     1     2   501   511  2.641491460E+00  1.493634479E+00  3.308759881E+00  4.489578270E+00  1.115100797E-07  0.00000E+00  9.000E+00
#rwgt            1          19   1988442.2188470545                3     9391675           0
<weights>
0.11145E+08
0.12830E+08
0.93346E+07
0.13229E+08
0.89829E+07
0.10754E+08
0.11478E+08
0.11246E+08
0.11046E+08
0.10939E+08
0.11051E+08
0.10946E+08
0.11212E+08
0.11045E+08
0.11059E+08
0.11180E+08
0.11080E+08
0.11213E+08
0.11187E+08
0.11179E+08
0.11215E+08
0.11207E+08
0.11208E+08
0.11137E+08
0.11252E+08
0.11230E+08
0.11096E+08
0.11199E+08
0.11108E+08
0.11132E+08
0.11209E+08
0.11070E+08
0.11245E+08
0.11181E+08
0.11105E+08
0.11329E+08
0.10980E+08
0.10685E+08
0.11663E+08
0.11027E+08
0.11256E+08
0.11104E+08
0.11190E+08
0.11269E+08
0.11006E+08
</weights>
</event>
<event>
      7  10001  1.11453E+07  1.07089E+00 -1.00000E+00  5.36770E-01
       2    -1     0     0   501     0  0.000000000E+00  0.000000000E+00  8.516232167E+00  8.516232167E+00  0.000000000E+00  0.00000E+00  9.000E+00
      -2    -1     0     0     0   502  0.000000000E+00  0.000000000E+00 -4.203758049E-01  4.203758049E-01  0.000000000E+00  0.00000E+00  9.000E+00
      23     2     1     2     0     0  1.110311916E+00  9.189120445E-01  3.141363147E+00  3.739758550E+00  1.428439601E+00  0.00000E+00  9.000E+00
      11     1     3     3     0     0  8.141827888E-01  3.465515881E-01  4.905689550E-01  1.011755789E+00  5.110000000E-04  0.00000E+00  9.000E+00
     -11     1     3     3     0     0  2.961291271E-01  5.723604564E-01  2.650794192E+00  2.728002760E+00  5.110000000E-04  0.00000E+00  9.000E+00
      21     1     1     2   511   502 -7.826822186E-02 -2.551275918E-01  1.658813609E+00  1.680142432E+00  2.107342426E-08  0.00000E+00  9.000E+00
      21     1     1     2   501   511 -1.032043694E+00 -6.637844527E-01  3.295679606E+00  3.516706989E+00  7.300048300E-08  0.00000E+00  9.000E+00
#rwgt            1          23   203883.81637894199                3     9398095           0
<weights>
0.11145E+08
0.12557E+08
0.97664E+07
0.12339E+08
0.95915E+07
0.11073E+08
0.10990E+08
0.10972E+08
0.11353E+08
0.10812E+08
0.10772E+08
0.10972E+08
0.10958E+08
0.10820E+08
0.10787E+08
0.11184E+08
0.11298E+08
0.11516E+08
0.11504E+08
0.11488E+08
0.11495E+08
0.11550E+08
0.11545E+08
0.11465E+08
0.11295E+08
0.11359E+08
0.11189E+08
0.11507E+08
0.11344E+08
0.11539E+08
0.11546E+08
0.11164E+08
0.11251E+08
0.11141E+08
0.11182E+08
0.11027E+08
0.11301E+08
0.11191E+08
0.11028E+08
0.11175E+08
0.11117E+08
0.11219E+08
0.11068E+08
0.11537E+08
0.10788E+08
</weights>
</event>
<event>
      7  10001  1.11453E+07  1.64925E+00 -1.00000E+00  3.93949E-01
       4    -1     0     0   501     0  0.000000000E+00  0.000000000E+00  6.008698197E+01  6.008698197E+01  0.000000000E+00  0.00000E+00  9.000E+00
      -4    -1     0     0     0   512  0.000000000E+00  0.000000000E+00 -3.861615156E-01  3.861615156E-01  0.000000000E+00  0.00000E+00  9.000E+00
      23     2     1     2     0     0 -2.705518679E+00  7.949095726E-01  4.191897125E+01  4.204071643E+01  1.506643680E+00  0.00000E+00  9.000E+00
      11     1     3     3     0     0 -4.314589404E-01  4.076256352E-01  3.303222317E+00  3.356127741E+00  5.110000000E-04  0.00000E+00  9.000E+00
     -11     1     3     3     0     0 -2.274059738E+00  3.872839374E-01  3.861574893E+01  3.868458869E+01  5.110000000E-04  0.00000E+00  9.000E+00
      21     1     1     2   501   502  1.119156904E+00 -1.245985251E+00  1.563883364E+01  1.572825829E+01  5.057621821E-07  0.00000E+00  9.000E+00
      21     1     1     2   502   512  1.586361775E+00  4.510756780E-01  2.143015572E+00  2.704168762E+00  9.424321831E-08  0.00000E+00  9.000E+00
#rwgt            1          27   57303.013512227270                3     9401042           0
<weights>
0.11145E+08
0.12567E+08
0.96729E+07
0.12704E+08
0.92094E+07
0.10803E+08
0.11404E+08
0.11171E+08
0.11119E+08
0.10785E+08
0.10757E+08
0.10944E+08
0.10979E+08
0.10796E+08
0.10770E+08
0.11235E+08
0.11237E+08
0.11520E+08
0.11558E+08
0.11547E+08
0.11492E+08
0.11568E+08
0.11579E+08
0.11458E+08
0.11348E+08
0.11314E+08
0.11337E+08
0.11496E+08
0.11415E+08
0.11551E+08
0.11580E+08
0.11203E+08
0.11218E+08
0.11132E+08
0.11190E+08
0.11207E+08
0.11104E+08
0.11198E+08
0.11016E+08
0.11184E+08
0.11112E+08
0.11192E+08
0.11097E+08
0.11562E+08
0.10764E+08
</weights>
</event>
<event>
      7  10001 -1.11453E+07  1.29210E+00 -1.00000E+00  4.72538E-01
       1    -1     0     0   501     0  0.000000000E+00  0.000000000E+00  4.007303243E+01  4.007303243E+01  0.000000000E+00  0.00000E+00  9.000E+00
      21    -1     0     0   511   501  0.000000000E+00  0.000000000E+00 -3.124083518E+01  3.124083518E+01  0.000000000E+00  0.00000E+00  9.000E+00
      23     2     1     2     0     0  3.293372712E-01 -3.252558133E-01  2.699656816E+01  2.703260606E+01  1.316375030E+00  0.00000E+00  9.000E+00
      11     1     3     3     0     0  6.732373006E-01  1.502207441E-01  8.967561869E+00  8.994052528E+00  5.110000000E-04  0.00000E+00  9.000E+00
     -11     1     3     3     0     0 -3.439000294E-01 -4.754765575E-01  1.802900629E+01  1.803855353E+01  5.110000000E-04  0.00000E+00  9.000E+00
       1     1     1     2   502     0 -9.402244352E-02 -9.452358345E-01  1.302777792E+01  1.306236229E+01  0.000000000E+00  0.00000E+00  9.000E+00
      21     1     1     2   511   502 -2.353148277E-01  1.270491648E+00 -3.119214883E+01  3.121889926E+01  0.000000000E+00  0.00000E+00  9.000E+00
#rwgt            1          22  -170747.29430441809                3     9403399           0
<weights>
-.11145E+08
-.74884E+07
-.14186E+08
-.18516E+08
-.58771E+07
-.31195E+07
-.23198E+08
-.11332E+08
-.10935E+08
-.11080E+08
-.11216E+08
-.11056E+08
-.11235E+08
-.11154E+08
-.11205E+08
-.11195E+08
-.10986E+08
-.11090E+08
-.10990E+08
-.11017E+08
-.11090E+08
-.11027E+08
-.11109E+08
-.10750E+08
-.11335E+08
-.11205E+08
-.10245E+08
-.11025E+08
-.11010E+08
-.10958E+08
-.11042E+08
-.11053E+08
-.11205E+08
-.11171E+08
-.11096E+08
-.11345E+08
-.10942E+08
-.10624E+08
-.11615E+08
-.11039E+08
-.11240E+08
-.11114E+08
-.11179E+08
-.11106E+08
-.11162E+08
</weights>
</event>
<event>
      6  10001  1.11453E+07  8.94427E-01 -1.00000E+00  6.06469E-01
       2    -1     0     0   501     0  0.000000000E+00  0.000000000E+00  7.943359137E-02  7.943359137E-02  0.000000000E+00  0.00000E+00  9.000E+00
      -2    -1     0     0     0   502  0.000000000E+00  0.000000000E+00 -2.018924243E+01  2.018924243E+01  0.000000000E+00  0.00000E+00  9.000E+00
      23     2     1     2     0     0 -3.636448170E-01  6.969803360E-02 -1.963712993E+01  1.966824225E+01  1.042010427E+00  0.00000E+00  9.000E+00
      11     1     3     3     0     0  6.885806184E-02  3.172785451E-01 -2.184096462E+00  2.208095270E+00  5.110000000E-04  0.00000E+00  9.000E+00
     -11     1     3     3     0     0 -4.325028788E-01 -2.475805115E-01 -1.745303347E+01  1.746014698E+01  5.110000000E-04  0.00000E+00  9.000E+00
      21     1     1     2   501   502  3.636448170E-01 -6.969803360E-02 -4.726789047E-01  6.004337730E-01  1.825012075E-08  0.00000E+00  9.000E+00
#rwgt            1          23   486252.50129519333                3     9406159           0
<weights>
0.11145E+08
0.12501E+08
0.97790E+07
0.12336E+08
0.95587E+07
0.11027E+08
0.11060E+08
0.11207E+08
0.11079E+08
0.10834E+08
0.10875E+08
0.10992E+08
0.10962E+08
0.10868E+08
0.10875E+08
0.11094E+08
0.11349E+08
0.11436E+08
0.11405E+08
0.11377E+08
0.11432E+08
0.11420E+08
0.11484E+08
0.11316E+08
0.11344E+08
0.11444E+08
0.10995E+08
0.11423E+08
0.11163E+08
0.11384E+08
0.11425E+08
0.11079E+08
0.11298E+08
0.11241E+08
0.11069E+08
0.10941E+08
0.11360E+08
0.10931E+08
0.11263E+08
0.11145E+08
0.11135E+08
0.11275E+08
0.11007E+08
0.11450E+08
0.10861E+08
</weights>
</event>
<event>
      6  10001 -1.11453E+07  8.94427E-01 -1.00000E+00  3.93037E-01
      -2    -1     0     0     0   502  0.000000000E+00  0.000000000E+00  1.080801431E-02  1.080801431E-02  0.000000000E+00  0.00000E+00  9.000E+00
       2    -1     0     0   501     0  0.000000000E+00  0.000000000E+00 -4.473307087E+02  4.473307087E+02  0.000000000E+00  0.00000E+00  9.000E+00
      23     2     1     2     0     0  4.508152199E-01  4.870162088E-01 -3.065553495E+02  3.065754012E+02  3.442944544E+00  0.00000E+00  9.000E+00
      11     1     3     3     0     0  7.389869826E-01  1.807187246E+00 -1.274460972E+02  1.274610517E+02  5.110000000E-04  0.00000E+00  9.000E+00
     -11     1     3     3     0     0 -2.881717627E-01 -1.320171037E+00 -1.791092523E+02  1.791143494E+02  5.110000000E-04  0.00000E+00  9.000E+00
      21     1     1     2   501   502 -4.508152199E-01 -4.870162088E-01 -1.407645511E+02  1.407661155E+02  1.907348633E-06  0.00000E+00  9.000E+00
#rwgt            1           8  -3351898.7508988120                3     9411274           0
<weights>
-.11145E+08
-.12231E+08
-.98475E+07
-.14865E+08
-.78904E+07
-.91702E+07
-.13910E+08
-.11129E+08
-.11161E+08
-.11165E+08
-.11152E+08
-.10992E+08
-.11319E+08
-.11157E+08
-.11154E+08
-.11292E+08
-.10924E+08
-.11457E+08
-.10698E+08
-.10636E+08
-.11494E+08
-.11108E+08
-.11170E+08
-.11053E+08
-.11197E+08
-.11329E+08
-.11029E+08
-.10766E+08
-.11557E+08
-.11070E+08
-.11186E+08
-.11024E+08
-.11264E+08
-.11496E+08
-.10712E+08
-.11100E+08
-.11186E+08
-.11149E+08
-.11147E+08
-.11248E+08
-.11053E+08
-.11136E+08
-.11155E+08
-.11131E+08
-.11159E+08
</weights>
</event>
<event>
      7  10001  1.11453E+07  1.13704E+00 -1.00000E+00  5.15266E-01
      -2    -1     0     0     0   502  0.000000000E+00  0.000000000E+00  5.526927940E+00  5.526927940E+00  0.000000000E+00  0.00000E+00  9.000E+00
       2    -1     0     0   501     0  0.000000000E+00  0.000000000E+00 -4.083692618E-01  4.083692618E-01  0.000000000E+00  0.00000E+00  9.000E+00
      23     2     1     2     0     0  5.122824092E-02 -4.943357463E-01  1.188102734E+00  1.882280135E+00  1.372733856E+00  0.00000E+00  9.000E+00
      11     1     3     3     0     0 -2.447060927E-02  4.577723582E-01  1.770479398E-01  4.914270818E-01  5.110000000E-04  0.00000E+00  9.000E+00
     -11     1     3     3     0     0  7.569885019E-02 -9.521081044E-01  1.011054794E+00  1.390853053E+00  5.110000000E-04  0.00000E+00  9.000E+00
      21     1     1     2   501   511  3.460882663E-01  2.844123600E-01  1.109905266E+00  1.196894807E+00  1.490116119E-08  0.00000E+00  9.000E+00
      21     1     1     2   511   502 -3.973165072E-01  2.099233862E-01  2.820550678E+00  2.856122260E+00  2.980232239E-08  0.00000E+00  9.000E+00
#rwgt            1           8   379399.57063066063                3     9411573           0
<weights>
0.11145E+08
0.12689E+08
0.96547E+07
0.12371E+08
0.95139E+07
0.11124E+08
0.10911E+08
0.10940E+08
0.11391E+08
0.10810E+08
0.10764E+08
0.10978E+08
0.10946E+08
0.10816E+08
0.10780E+08
0.11172E+08
0.11322E+08
0.11517E+08
0.11521E+08
0.11504E+08
0.11495E+08
0.11561E+08
0.11549E+08
0.11477E+08
0.11294E+08
0.11361E+08
0.11195E+08
0.11529E+08
0.11335E+08
0.11553E+08
0.11552E+08
0.11167E+08
0.11251E+08
0.11133E+08
0.11194E+08
0.11000E+08
0.11330E+08
0.11206E+08
0.11015E+08
0.11175E+08
0.11117E+08
0.11224E+08
0.11062E+08
0.11543E+08
0.10782E+08
</weights>
</event>
<event>
      6  10001 -1.11453E+07  8.94427E-01 -1.00000E+00  1.31919E-01
      21    -1     0     0   502   501  0.000000000E+00  0.000000000E+00  1.711019637E-02  1.711019637E-02  0.000000000E+00  0.00000E+00  9.000E+00
       1    -1     0     0   501     0  0.000000000E+00  0.000000000E+00 -3.058041396E+01  3.058041396E+01  0.000000000E+00  0.00000E+00  9.000E+00
      23     2     1     2     0     0  5.270218067E-03  2.821885178E-01 -2.765177172E+01  2.767234434E+01  1.028836097E+00  0.00000E+00  9.000E+00
      11     1     3     3     0     0  4.301141243E-01 -1.112868077E-01 -1.602986602E+01  1.603602157E+01  5.110000000E-04  0.00000E+00  9.000E+00
     -11     1     3     3     0     0 -4.248439062E-01  3.934753255E-01 -1.162190570E+01  1.163632276E+01  5.110000000E-04  0.00000E+00  9.000E+00
       1     1     1     2   502     0 -5.270218067E-03 -2.821885178E-01 -2.911532047E+00  2.925179823E+00  0.000000000E+00  0.00000E+00  9.000E+00
#rwgt            1          16  -1308269.7169771276                3     9412906           0
<weights>
-.11145E+08
-.12459E+08
-.97255E+07
-.15142E+08
-.77926E+07
-.91702E+07
-.13910E+08
-.11208E+08
-.11081E+08
-.11011E+08
-.11026E+08
-.10977E+08
-.11155E+08
-.11035E+08
-.11045E+08
-.10961E+08
-.11335E+08
-.11224E+08
-.11201E+08
-.11170E+08
-.11222E+08
-.11242E+08
-.11261E+08
-.11198E+08
-.11223E+08
-.11297E+08
-.11046E+08
-.11161E+08
-.11159E+08
-.11203E+08
-.11246E+08
-.11104E+08
-.11216E+08
-.11151E+08
-.11085E+08
-.11067E+08
-.11224E+08
-.10961E+08
-.11312E+08
-.11123E+08
-.11157E+08
-.11219E+08
-.11066E+08
-.11265E+08
-.11028E+08
</weights>
</event>
<event>
      6  10001  1.11453E+07  8.94427E-01 -1.00000E+00  6.07104E-01
       2    -1     0     0   501     0  0.000000000E+00  0.000000000E+00  4.943267838E-01  4.943267838E-01  0.000000000E+00  0.00000E+00  9.000E+00
      21    -1     0     0   502   501  0.000000000E+00  0.000000000E+00 -1.125692921E+01  1.125692921E+01  0.000000000E+00  0.00000E+00  9.000E+00
      23     2     1     2     0     0  9.793475227E-02 -2.366897821E-01 -2.894882403E+00  3.879367298E+00  2.569734080E+00  0.00000E+00  9.000E+00
      11     1     3     3     0     0  1.077171472E+00  6.093217749E-01 -1.033558142E+00  1.612393903E+00  5.110000000E-04  0.00000E+00  9.000E+00
     -11     1     3     3     0     0 -9.792367198E-01 -8.460115570E-01 -1.861324261E+00  2.266973395E+00  5.110000000E-04  0.00000E+00  9.000E+00
       2     1     1     2   502     0 -9.793475227E-02  2.366897821E-01 -7.867720021E+00  7.871888693E+00  0.000000000E+00  0.00000E+00  9.000E+00
#rwgt            1          24   884747.45130774530                3     9413678           0
<weights>
0.11145E+08
0.13825E+08
0.84158E+07
0.12098E+08
0.98372E+07
0.12362E+08
0.90102E+07
0.11260E+08
0.11023E+08
0.10539E+08
0.10529E+08
0.10822E+08
0.10875E+08
0.10551E+08
0.10537E+08
0.11275E+08
0.11331E+08
0.11760E+08
0.11815E+08
0.11816E+08
0.11710E+08
0.11815E+08
0.11894E+08
0.11475E+08
0.11617E+08
0.11568E+08
0.11018E+08
0.11745E+08
0.11519E+08
0.11775E+08
0.11841E+08
0.11217E+08
0.11279E+08
0.11128E+08
0.11205E+08
0.11327E+08
0.10993E+08
0.11092E+08
0.10963E+08
0.11228E+08
0.11074E+08
0.11203E+08
0.11086E+08
0.11827E+08
0.10523E+08
</weights>
</event>
<event>
      6  10001 -1.11453E+07  8.94427E-01 -1.00000E+00  5.95112E-01
      21    -1     0     0   502   501  0.000000000E+00  0.000000000E+00  2.422006612E-02  2.422006612E-02  0.000000000E+00  0.00000E+00  9.000E+00
      -2    -1     0     0     0   502  0.000000000E+00  0.000000000E+00 -7.397913637E+01  7.397913637E+01  0.000000000E+00  0.00000E+00  9.000E+00
      23     2     1     2     0     0 -2.803603886E-01 -3.093118409E-01 -4.688003124E+01  4.692525316E+01  2.016873667E+00  0.00000E+00  9.000E+00
      11     1     3     3     0     0 -3.176495355E-01  7.552481101E-01 -1.148081188E+01  1.151001054E+01  5.110000000E-04  0.00000E+00  9.000E+00
     -11     1     3     3     0     0  3.728914687E-02 -1.064559951E+00 -3.539921936E+01  3.541524262E+01  5.110000000E-04  0.00000E+00  9.000E+00
      -2     1     1     2     0   501  2.803603886E-01  3.093118409E-01 -2.707488507E+01  2.707810328E+01  0.000000000E+00  0.00000E+00  9.000E+00
#rwgt            1          14  -2107222.9058085331                3     9555866           0
<weights>
-.11145E+08
-.12610E+08
-.95289E+07
-.15325E+08
-.76351E+07
-.91702E+07
-.13910E+08
-.11199E+08
-.11092E+08
-.11097E+08
-.11152E+08
-.11074E+08
-.11140E+08
-.11153E+08
-.11156E+08
-.11070E+08
-.11198E+08
-.11170E+08
-.11051E+08
-.11025E+08
-.11186E+08
-.11118E+08
-.11113E+08
-.11157E+08
-.11117E+08
-.11172E+08
-.11102E+08
-.11125E+08
-.11014E+08
-.11093E+08
-.11121E+08
-.11106E+08
-.11176E+08
-.11276E+08
-.11016E+08
-.11054E+08
-.11221E+08
-.10980E+08
-.11343E+08
-.11092E+08
-.11181E+08
-.11260E+08
-.11022E+08
-.11141E+08
-.11136E+08
</weights>
</event>
<event>
      6  10001 -1.11453E+07  8.94427E-01 -1.00000E+00  5.86915E-01
      -4    -1     0     0     0   502  0.000000000E+00  0.000000000E+00  5.486954866E+01  5.486954866E+01  0.000000000E+00  0.00000E+00  9.000E+00
      21    -1     0     0   502   501  0.000000000E+00  0.000000000E+00 -1.401174785E-02  1.401174785E-02  0.000000000E+00  0.00000E+00  9.000E+00
      23     2     1     2     0     0  1.096561561E-01 -4.244340080E-01  4.786807360E+01  4.788235963E+01  1.084308766E+00  0.00000E+00  9.000E+00
      11     1     3     3     0     0  3.457817779E-01 -6.658740005E-01  4.000738525E+01  4.001442025E+01  5.110000000E-04  0.00000E+00  9.000E+00
     -11     1     3     3     0     0 -2.361256218E-01  2.414399925E-01  7.860688346E+00  7.867939382E+00  5.110000000E-04  0.00000E+00  9.000E+00
      -4     1     1     2     0   501 -1.096561561E-01  4.244340080E-01  6.987463312E+00  7.001200771E+00  0.000000000E+00  0.00000E+00  9.000E+00
#rwgt            1           3  -5045384.1123617310                3     9558260           0
<weights>
-.11145E+08
-.12517E+08
-.97555E+07
-.15222E+08
-.78169E+07
-.91652E+07
-.13909E+08
-.11138E+08
-.11152E+08
-.11015E+08
-.10983E+08
-.11043E+08
-.11104E+08
-.11013E+08
-.10998E+08
-.11193E+08
-.11162E+08
-.11297E+08
-.11302E+08
-.11293E+08
-.11287E+08
-.11314E+08
-.11314E+08
-.11291E+08
-.11211E+08
-.11215E+08
-.11262E+08
-.11280E+08
-.11252E+08
-.11311E+08
-.11319E+08
-.11174E+08
-.11167E+08
-.11122E+08
-.11183E+08
-.11170E+08
-.11129E+08
-.11193E+08
-.11050E+08
-.11142E+08
-.11149E+08
-.11163E+08
-.11126E+08
-.11308E+08
-.10997E+08
</weights>
</event>
<event>
      7  10001  1.11453E+07  1.34088E+00 -1.00000E+00  4.61061E-01
      -2    -1     0     0     0   502  0.000000000E+00  0.000000000E+00  5.405058289E-01  5.405058289E-01  0.000000000E+00  0.00000E+00  9.000E+00
       2    -1     0     0   501     0  0.000000000E+00  0.000000000E+00 -6.361552453E+00  6.361552453E+00  0.000000000E+00  0.00000E+00  9.000E+00
      23     2     1     2     0     0  8.403729488E-01 -3.605640217E-02 -1.892456437E+00  2.857666651E+00  1.969096382E+00  0.00000E+00  9.000E+00
      11     1     3     3     0     0  9.901615487E-01  2.717859685E-01 -2.180564866E+00  2.410218019E+00  5.110000000E-04  0.00000E+00  9.000E+00
     -11     1     3     3     0     0 -1.497885999E-01 -3.078423707E-01  2.881084287E-01  4.474486313E-01  5.110000000E-04  0.00000E+00  9.000E+00
      21     1     1     2   511   502 -1.192604221E-01 -8.355223905E-02 -2.158229847E-01  2.603528099E-01  4.562530187E-09  0.00000E+00  9.000E+00
      21     1     1     2   501   511 -7.211125267E-01  1.196086412E-01 -3.712767202E+00  3.784038821E+00  4.214684851E-08  0.00000E+00  9.000E+00
#rwgt            1           8   304045.74607613066                3     9560633           0
<weights>
0.11145E+08
0.12655E+08
0.97657E+07
0.11264E+08
0.10322E+08
0.11853E+08
0.97918E+07
0.11083E+08
0.11202E+08
0.10838E+08
0.10812E+08
0.11027E+08
0.10921E+08
0.10844E+08
0.10824E+08
0.11089E+08
0.11418E+08
0.11417E+08
0.11563E+08
0.11558E+08
0.11395E+08
0.11509E+08
0.11509E+08
0.11384E+08
0.11336E+08
0.11392E+08
0.11048E+08
0.11577E+08
0.11168E+08
0.11505E+08
0.11487E+08
0.11166E+08
0.11233E+08
0.11103E+08
0.11238E+08
0.10961E+08
0.11355E+08
0.11130E+08
0.11047E+08
0.11150E+08
0.11136E+08
0.11247E+08
0.11037E+08
0.11497E+08
0.10824E+08
</weights>
</event>
<event>
      6  10001 -1.11453E+07  8.94427E-01 -1.00000E+00  5.14044E-01
       2    -1     0     0   501     0  0.000000000E+00  0.000000000E+00  4.075755395E+01  4.075755395E+01  0.000000000E+00  0.00000E+00  9.000E+00
      21    -1     0     0   502   501  0.000000000E+00  0.000000000E+00 -2.430996438E-02  2.430996438E-02  0.000000000E+00  0.00000E+00  9.000E+00
      23     2     1     2     0     0  5.394735477E-01 -3.862377595E-01  1.959198538E+01  1.963019669E+01  1.028843669E+00  0.00000E+00  9.000E+00
      11     1     3     3     0     0  7.077147921E-01 -3.845430530E-01  8.771186140E+00  8.808089472E+00  5.110000000E-04  0.00000E+00  9.000E+00
     -11     1     3     3     0     0 -1.682412444E-01 -1.694706498E-03  1.082079924E+01  1.082210721E+01  5.110000000E-04  0.00000E+00  9.000E+00
       2     1     1     2   502     0 -5.394735477E-01  3.862377595E-01  2.114125860E+01  2.115166722E+01  0.000000000E+00  0.00000E+00  9.000E+00
#rwgt            1          24  -10984546.238749797                3     9564908           0
<weights>
-.11145E+08
-.12742E+08
-.94291E+07
-.15482E+08
-.75549E+07
-.91738E+07
-.13910E+08
-.11177E+08
-.11115E+08
-.10834E+08
-.10831E+08
-.10967E+08
-.11014E+08
-.10855E+08
-.10841E+08
-.11225E+08
-.11200E+08
-.11445E+08
-.11484E+08
-.11473E+08
-.11422E+08
-.11480E+08
-.11503E+08
-.11388E+08
-.11326E+08
-.11277E+08
-.11326E+08
-.11414E+08
-.11358E+08
-.11456E+08
-.11493E+08
-.11177E+08
-.11217E+08
-.11140E+08
-.11173E+08
-.11211E+08
-.11098E+08
-.11109E+08
-.11110E+08
-.11161E+08
-.11133E+08
-.11183E+08
-.11106E+08
-.11488E+08
-.10829E+08
</weights>
</event>
<event>
      7  10001  1.11453E+07  1.57357E+00 -1.00000E+00  4.05132E-01
      21    -1     0     0   502   501  0.000000000E+00  0.000000000E+00  9.557014790E+00  9.557014790E+00  0.000000000E+00  0.00000E+00  9.000E+00
      -5    -1     0     0     0   502  0.000000000E+00  0.000000000E+00 -6.789680243E-01  6.789680243E-01  0.000000000E+00  0.00000E+00  9.000E+00
      23     2     1     2     0     0  6.243935357E-02  9.568952685E-01  4.100515632E-01  1.503628529E+00  1.083147839E+00  0.00000E+00  9.000E+00
      11     1     3     3     0     0 -2.741074296E-01  1.868044220E-01 -2.658810773E-01  4.251161999E-01  5.110000000E-04  0.00000E+00  9.000E+00
     -11     1     3     3     0     0  3.365467832E-01  7.700908465E-01  6.759326405E-01  1.078512329E+00  5.110000000E-04  0.00000E+00  9.000E+00
      -5     1     1     2     0   511  3.442584247E-01 -1.389995187E+00  4.563032193E+00  4.782453688E+00  0.000000000E+00  0.00000E+00  9.000E+00
      21     1     1     2   511   501 -4.066977783E-01  4.330999181E-01  3.904963009E+00  3.949900597E+00  4.214684851E-08  0.00000E+00  9.000E+00
#rwgt            1          11   174699.40173935777                3     9569719           0
<weights>
0.11156E+08
0.13630E+08
0.86091E+07
0.13383E+08
0.86532E+07
0.11189E+08
0.10840E+08
0.11208E+08
0.11101E+08
0.10815E+08
0.10805E+08
0.10959E+08
0.11015E+08
0.10833E+08
0.10816E+08
0.11245E+08
0.11226E+08
0.11501E+08
0.11515E+08
0.11510E+08
0.11474E+08
0.11535E+08
0.11554E+08
0.11383E+08
0.11378E+08
0.11337E+08
0.11185E+08
0.11474E+08
0.11384E+08
0.11512E+08
0.11547E+08
0.11200E+08
0.11229E+08
0.11145E+08
0.11194E+08
0.11245E+08
0.11086E+08
0.11144E+08
0.11086E+08
0.11182E+08
0.11136E+08
0.11193E+08
0.11118E+08
0.11539E+08
0.10805E+08
</weights>
</event>
<event>
      7  10001 -1.11453E+07  1.29667E+00 -1.00000E+00  4.71414E-01
       1    -1     0     0   501     0  0.000000000E+00  0.000000000E+00  6.161136699E+00  6.161136699E+00  0.000000000E+00  0.00000E+00  9.000E+00
      21    -1     0     0   512   501  0.000000000E+00  0.000000000E+00 -1.982845942E+01  1.982845942E+01  0.000000000E+00  0.00000E+00  9.000E+00
      23     2     1     2     0     0  7.100226829E-01  1.735926805E-02  5.269989032E+00  5.479966758E+00  1.323940223E+00  0.00000E+00  9.000E+00
      11     1     3     3     0     0  4.184042499E-01 -5.939722786E-01  3.691131900E+00  3.761956957E+00  5.110000000E-04  0.00000E+00  9.000E+00
     -11     1     3     3     0     0  2.916184330E-01  6.113315466E-01  1.578857132E+00  1.718009800E+00  5.110000000E-04  0.00000E+00  9.000E+00
       1     1     1     2   502     0  5.047478963E-01  4.361735463E-01  6.191989274E-01  9.101786160E-01  0.000000000E+00  0.00000E+00  9.000E+00
      21     1     1     2   512   502 -1.214770579E+00 -4.535328143E-01 -1.955651068E+01  1.959945074E+01  0.000000000E+00  0.00000E+00  9.000E+00
#rwgt            1          22  -339475.61609829991                3     9572442           0
<weights>
-.11145E+08
-.99988E+07
-.11794E+08
-.16036E+08
-.72238E+07
-.66939E+07
-.17711E+08
-.11192E+08
-.11095E+08
-.11125E+08
-.11154E+08
-.11089E+08
-.11198E+08
-.11137E+08
-.11158E+08
-.11161E+08
-.11095E+08
-.11130E+08
-.11122E+08
-.11125E+08
-.11132E+08
-.11111E+08
-.11156E+08
-.11051E+08
-.11204E+08
-.11170E+08
-.10948E+08
-.11112E+08
-.11100E+08
-.11089E+08
-.11120E+08
-.11112E+08
-.11169E+08
-.11143E+08
-.11141E+08
-.11216E+08
-.11076E+08
-.10971E+08
-.11271E+08
-.11094E+08
-.11191E+08
-.11130E+08
-.11162E+08
-.11140E+08
-.11145E+08
</weights>
</event>
<event>
      7  10001  1.11453E+07  1.12020E+00 -1.00000E+00  5.20527E-01
      -1    -1     0     0     0   502  0.000000000E+00  0.000000000E+00  2.257807745E-01  2.257807745E-01  0.000000000E+00  0.00000E+00  9.000E+00
      21    -1     0     0   511   501  0.000000000E+00  0.000000000E+00 -1.237305986E+02  1.237305986E+02  0.000000000E+00  0.00000E+00  9.000E+00
      23     2     1     2     0     0 -6.317118469E-02  3.591206076E-01 -4.760511934E+00  4.921690120E+00  1.194822812E+00  0.00000E+00  9.000E+00
      11     1     3     3     0     0 -4.259492713E-01 -2.141326982E-01 -2.949562100E+00  2.987842438E+00  5.110000000E-04  0.00000E+00  9.000E+00
     -11     1     3     3     0     0  3.627780866E-01  5.732533057E-01 -1.810949835E+00  1.933847682E+00  5.110000000E-04  0.00000E+00  9.000E+00
      -1     1     1     2     0   501  2.094209517E-01  7.514943634E-01 -9.249740195E-01  1.210032169E+00  0.000000000E+00  0.00000E+00  9.000E+00
      21     1     1     2   511   502 -1.462497670E-01 -1.110614971E+00 -1.178193319E+02  1.178246571E+02  0.000000000E+00  0.00000E+00  9.000E+00
#rwgt            1           9   27509.770374072436                3     9576898           0
<weights>
0.11145E+08
0.16515E+08
0.62955E+07
0.88312E+07
0.11614E+08
0.16398E+08
0.28147E+07
0.11232E+08
0.11045E+08
0.10310E+08
0.10188E+08
0.10722E+08
0.10703E+08
0.10282E+08
0.10212E+08
0.11326E+08
0.11495E+08
0.12111E+08
0.12151E+08
0.12152E+08
0.12030E+08
0.12220E+08
0.12241E+08
0.11797E+08
0.11710E+08
0.11719E+08
0.11118E+08
0.12116E+08
0.11788E+08
0.12212E+08
0.12242E+08
0.11338E+08
0.11277E+08
0.11094E+08
0.11276E+08
0.11293E+08
0.11037E+08
0.11477E+08
0.10519E+08
0.11336E+08
0.10981E+08
0.11248E+08
0.11039E+08
0.12171E+08
0.10222E+08
</weights>
</event>
<event>
      7  10001  1.11453E+07  1.31759E+00 -1.00000E+00  4.66480E-01
      -1    -1     0     0     0   502  0.000000000E+00  0.000000000E+00  3.730746167E-01  3.730746167E-01  0.000000000E+00  0.00000E+00  9.000E+00
      21    -1     0     0   502   501  0.000000000E+00  0.000000000E+00 -4.937483504E+00  4.937483504E+00  0.000000000E+00  0.00000E+00  9.000E+00
      23     2     1     2     0     0 -1.904445613E-01  7.841045975E-04 -3.073659102E+00  3.313500602E+00  1.222962069E+00  0.00000E+00  9.000E+00
      11     1     3     3     0     0  1.632206154E-01  2.771588113E-01 -1.487968307E-01  3.543991168E-01  5.110000000E-04  0.00000E+00  9.000E+00
     -11     1     3     3     0     0 -3.536651767E-01 -2.763747067E-01 -2.924862271E+00  2.959101486E+00  5.110000000E-04  0.00000E+00  9.000E+00
      -1     1     1     2     0   511  8.824482664E-02 -6.579301851E-01 -7.476215355E-01  9.997985988E-01  0.000000000E+00  0.00000E+00  9.000E+00
      21     1     1     2   511   501  1.021997347E-01  6.571460805E-01 -7.431282500E-01  9.972589196E-01  2.787751993E-08  0.00000E+00  9.000E+00
#rwgt            1           9   46774.403422153133                3     9582049           0
<weights>
0.11145E+08
0.13175E+08
0.90814E+07
0.12290E+08
0.95108E+07
0.11594E+08
0.10190E+08
0.11219E+08
0.11065E+08
0.10680E+08
0.10657E+08
0.10882E+08
0.10944E+08
0.10692E+08
0.10670E+08
0.11256E+08
0.11273E+08
0.11627E+08
0.11655E+08
0.11651E+08
0.11589E+08
0.11675E+08
0.11712E+08
0.11444E+08
0.11470E+08
0.11435E+08
0.11118E+08
0.11607E+08
0.11453E+08
0.11648E+08
0.11692E+08
0.11212E+08
0.11241E+08
0.11125E+08
0.11201E+08
0.11270E+08
0.11044E+08
0.11150E+08
0.10989E+08
0.11198E+08
0.11101E+08
0.11194E+08
0.11095E+08
0.11676E+08
0.10660E+08
</weights>
</event>
<event>
      7  10001  1.11453E+07  5.45898E+00 -1.00000E+00  2.30718E-01
      -3    -1     0     0     0   502  0.000000000E+00  0.000000000E+00  9.750716187E+01  9.750716187E+01  0.000000000E+00  0.00000E+00  9.000E+00
      21    -1     0     0   512   501  0.000000000E+00  0.000000000E+00 -1.472365663E+01  1.472365663E+01  0.000000000E+00  0.00000E+00  9.000E+00
      23     2     1     2     0     0  5.817550172E-01 -3.085062023E-01  4.330372505E+01  4.332240745E+01  1.088470901E+00  0.00000E+00  9.000E+00
      11     1     3     3     0     0  3.219150461E-01  3.474709029E-01  2.598365550E+01  2.598797257E+01  5.110000000E-04  0.00000E+00  9.000E+00
     -11     1     3     3     0     0  2.598399711E-01 -6.559771052E-01  1.732006955E+01  1.733443487E+01  5.110000000E-04  0.00000E+00  9.000E+00
      -3     1     1     2     0   501  4.089722562E+00 -2.515995442E+00  5.357668630E+01  5.379142477E+01  0.000000000E+00  0.00000E+00  9.000E+00
      21     1     1     2   512   502 -4.671477579E+00  2.824501645E+00 -1.409690611E+01  1.511698628E+01  4.129530925E-07  0.00000E+00  9.000E+00
#rwgt            1           5   252370.32044181909                3     9587355           0
<weights>
0.11145E+08
0.13718E+08
0.84652E+07
0.13310E+08
0.88321E+07
0.11378E+08
0.10521E+08
0.11143E+08
0.11152E+08
0.10765E+08
0.10726E+08
0.10940E+08
0.10957E+08
0.10772E+08
0.10741E+08
0.11234E+08
0.11257E+08
0.11545E+08
0.11610E+08
0.11592E+08
0.11516E+08
0.11605E+08
0.11611E+08
0.11541E+08
0.11333E+08
0.11308E+08
0.11533E+08
0.11524E+08
0.11449E+08
0.11592E+08
0.11616E+08
0.11211E+08
0.11220E+08
0.11131E+08
0.11195E+08
0.11184E+08
0.11131E+08
0.11240E+08
0.10977E+08
0.11194E+08
0.11104E+08
0.11200E+08
0.11088E+08
0.11593E+08
0.10737E+08
</weights>
</event>
<event>
      7  10001  1.11453E+07  8.94427E-01 -1.00000E+00  6.07649E-01
      21    -1     0     0   501   511  0.000000000E+00  0.000000000E+00  5.883960345E+00  5.883960345E+00  0.000000000E+00  0.00000E+00  9.000E+00
      21    -1     0     0   502   501  0.000000000E+00  0.000000000E+00 -1.264999855E+00  1.264999855E+00  0.000000000E+00  0.00000E+00  9.000E+00
      23     2     1     2     0     0  5.509802220E-02  4.257958573E-01  1.954222432E-01  2.656755073E+00  2.614540067E+00  0.00000E+00  9.000E+00
      11     1     3     3     0     0 -1.094212311E+00  7.439176105E-02 -5.658469889E-01  1.234106070E+00  5.110000000E-04  0.00000E+00  9.000E+00
     -11     1     3     3     0     0  1.149310334E+00  3.514040962E-01  7.612692321E-01  1.422649003E+00  5.110000000E-04  0.00000E+00  9.000E+00
       1     1     1     2   502     0 -3.904923300E-03 -3.347862026E-01  4.353764349E+00  4.366618951E+00  0.000000000E+00  0.00000E+00  9.000E+00
      -1     1     1     2     0   511 -5.119309890E-02 -9.100965470E-02  6.977389754E-02  1.255861752E-01  0.000000000E+00  0.00000E+00  9.000E+00
#rwgt            2         168   167660.99873669990                3     9588818           0
<weights>
0.11145E+08
0.11207E+08
0.10771E+08
0.13621E+08
0.86306E+07
0.91702E+07
0.13910E+08
0.11198E+08
0.11089E+08
0.10854E+08
0.10860E+08
0.10971E+08
0.11036E+08
0.10878E+08
0.10868E+08
0.11224E+08
0.11184E+08
0.11423E+08
0.11435E+08
0.11430E+08
0.11401E+08
0.11447E+08
0.11472E+08
0.11315E+08
0.11338E+08
0.11289E+08
0.11158E+08
0.11391E+08
0.11325E+08
0.11419E+08
0.11459E+08
0.11170E+08
0.11214E+08
0.11139E+08
0.11170E+08
0.11232E+08
0.11074E+08
0.11076E+08
0.11142E+08
0.11152E+08
0.11140E+08
0.11175E+08
0.11115E+08
0.11459E+08
0.10855E+08
</weights>
</event>
<event>
      7  10001  1.11453E+07  1.59336E+00 -1.00000E+00  4.02091E-01
      -2    -1     0     0     0   502  0.000000000E+00  0.000000000E+00  1.571154213E-01  1.571154213E-01  0.000000000E+00  0.00000E+00  9.000E+00
      21    -1     0     0   501   511  0.000000000E+00  0.000000000E+00 -2.268370957E+02  2.268370957E+02  0.000000000E+00  0.00000E+00  9.000E+00
      23     2     1     2     0     0 -2.190418486E-01  4.186691235E-01 -2.782465851E+01  2.786906486E+01  1.499963859E+00  0.00000E+00  9.000E+00
      11     1     3     3     0     0  3.367511757E-02  6.017581028E-01 -2.654720957E+01  2.655405022E+01  5.110000000E-04  0.00000E+00  9.000E+00
     -11     1     3     3     0     0 -2.527169662E-01 -1.830889793E-01 -1.277448939E+00  1.315014636E+00  5.110000000E-04  0.00000E+00  9.000E+00
      21     1     1     2   501   502  1.368112609E+00  6.851576077E-01 -4.314186488E+00  4.577486004E+00  5.960464478E-08  0.00000E+00  9.000E+00
      -2     1     1     2     0   511 -1.149070761E+00 -1.103826731E+00 -1.945411353E+02  1.945476603E+02  0.000000000E+00  0.00000E+00  9.000E+00
#rwgt            1           8   849136.25096510001                3     9590475           0
<weights>
0.11145E+08
0.11990E+08
0.10203E+08
0.12966E+08
0.91978E+07
0.10240E+08
0.12268E+08
0.11203E+08
0.11087E+08
0.10989E+08
0.11037E+08
0.11127E+08
0.10996E+08
0.11023E+08
0.11034E+08
0.11060E+08
0.11302E+08
0.11125E+08
0.11437E+08
0.11450E+08
0.11110E+08
0.11262E+08
0.11270E+08
0.11260E+08
0.11195E+08
0.11191E+08
0.11123E+08
0.11417E+08
0.10935E+08
0.11253E+08
0.11233E+08
0.11153E+08
0.11171E+08
0.11058E+08
0.11277E+08
0.11090E+08
0.11205E+08
0.10985E+08
0.11279E+08
0.11081E+08
0.11196E+08
0.11227E+08
0.11059E+08
0.11276E+08
0.11018E+08
</weights>
</event>
<event>
      6  10001  1.11453E+07  8.94427E-01 -1.00000E+00  6.05330E-01
      -2    -1     0     0     0   502  0.000000000E+00  0.000000000E+00  4.165266309E-02  4.165266309E-02  0.000000000E+00  0.00000E+00  9.000E+00
       2    -1     0     0   501     0  0.000000000E+00  0.000000000E+00 -2.159475915E+02  2.159475915E+02  0.000000000E+00  0.00000E+00  9.000E+00
      23     2     1     2     0     0 -7.186032398E-01  4.271911104E-01 -1.562225405E+02  1.562999912E+02  4.848319748E+00  0.00000E+00  9.000E+00
      11     1     3     3     0     0  4.131267079E-01 -1.354661435E+00 -1.626769384E+01  1.632922669E+01  5.110000000E-04  0.00000E+00  9.000E+00
     -11     1     3     3     0     0 -1.131729948E+00  1.781852545E+00 -1.399548466E+02  1.399707645E+02  5.110000000E-04  0.00000E+00  9.000E+00
      21     1     1     2   501   502  7.186032398E-01 -4.271911104E-01 -5.968339834E+01  5.968925297E+01  6.743495762E-07  0.00000E+00  9.000E+00
#rwgt            1           8   2873691.1731249853                3     9591993           0
<weights>
0.11145E+08
0.12219E+08
0.10090E+08
0.11567E+08
0.10367E+08
0.11445E+08
0.10418E+08
0.11136E+08
0.11153E+08
0.11157E+08
0.11166E+08
0.11137E+08
0.11148E+08
0.11163E+08
0.11163E+08
0.11324E+08
0.10863E+08
0.11163E+08
0.11061E+08
0.11057E+08
0.11161E+08
0.11113E+08
0.11140E+08
0.11230E+08
0.11016E+08
0.11061E+08
0.11184E+08
0.11139E+08
0.11075E+08
0.11123E+08
0.11131E+08
0.11069E+08
0.11213E+08
0.11132E+08
0.11145E+08
0.11158E+08
0.11128E+08
0.11162E+08
0.11125E+08
0.11131E+08
0.11153E+08
0.11183E+08
0.11104E+08
0.11125E+08
0.11163E+08
</weights>
</event>
<event>
      6  10001 -1.11453E+07  8.94427E-01 -1.00000E+00  1.37020E-01
       2    -1     0     0   501     0  0.000000000E+00  0.000000000E+00  5.329219495E+01  5.329219495E+01  0.000000000E+00  0.00000E+00  9.000E+00
      21    -1     0     0   502   501  0.000000000E+00  0.000000000E+00 -1.662538623E-02  1.662538623E-02  0.000000000E+00  0.00000E+00  9.000E+00
      23     2     1     2     0     0  1.182283988E-01 -2.820553751E-01  4.768732547E+01  4.771221375E+01  1.510230976E+00  0.00000E+00  9.000E+00
      11     1     3     3     0     0  2.923266655E-01 -6.326555631E-01  4.373461542E+01  4.374016797E+01  5.110000000E-04  0.00000E+00  9.000E+00
     -11     1     3     3     0     0 -1.740982667E-01  3.506001881E-01  3.952710051E+00  3.972045784E+00  5.110000000E-04  0.00000E+00  9.000E+00
       2     1     1     2   502     0 -1.182283988E-01  2.820553751E-01  5.588244100E+00  5.596606588E+00  0.000000000E+00  0.00000E+00  9.000E+00
#rwgt            1          24  -5918231.0547943981                3     9594849           0
<weights>
-.11145E+08
-.12369E+08
-.97485E+07
-.15040E+08
-.78112E+07
-.91659E+07
-.13909E+08
-.11173E+08
-.11119E+08
-.10825E+08
-.10816E+08
-.10962E+08
-.11008E+08
-.10843E+08
-.10826E+08
-.11226E+08
-.11210E+08
-.11460E+08
-.11500E+08
-.11489E+08
-.11437E+08
-.11498E+08
-.11518E+08
-.11407E+08
-.11329E+08
-.11286E+08
-.11344E+08
-.11432E+08
-.11370E+08
-.11476E+08
-.11511E+08
-.11183E+08
-.11217E+08
-.11138E+08
-.11177E+08
-.11209E+08
-.11100E+08
-.11129E+08
-.11087E+08
-.11166E+08
-.11128E+08
-.11185E+08
-.11104E+08
-.11503E+08
-.10816E+08
</weights>
</event>
<event>
      7  10001  1.11453E+07  2.83011E+00 -1.00000E+00  2.99751E-01
      21    -1     0     0   502   501  0.000000000E+00  0.000000000E+00  1.446918731E-01  1.446918731E-01  0.000000000E+00  0.00000E+00  9.000E+00
      -2    -1     0     0     0   502  0.000000000E+00  0.000000000E+00 -2.853340330E+01  2.853340330E+01  0.000000000E+00  0.00000E+00  9.000E+00
      23     2     1     2     0     0  2.478991066E-01  7.850512798E-02 -2.751303224E+00  3.037100458E+00  1.259639924E+00  0.00000E+00  9.000E+00
      11     1     3     3     0     0  5.367039878E-01  2.132985733E-01 -5.016526137E-01  7.649856586E-01  5.110000000E-04  0.00000E+00  9.000E+00
     -11     1     3     3     0     0 -2.888048812E-01 -1.347934453E-01 -2.249650610E+00  2.272114799E+00  5.110000000E-04  0.00000E+00  9.000E+00
      -2     1     1     2     0   511 -2.431123812E-02 -5.963135963E-03 -1.238819998E-01  1.263857000E-01  0.000000000E+00  0.00000E+00  9.000E+00
      21     1     1     2   511   501 -2.235878685E-01 -7.254199201E-02 -2.551352620E+01  2.551460901E+01  0.000000000E+00  0.00000E+00  9.000E+00
#rwgt            2         160   13123.396378282441                3     9596841           0
<weights>
0.11148E+08
0.11439E+08
0.10549E+08
0.13950E+08
0.84541E+07
0.91411E+07
0.13910E+08
0.11223E+08
0.11071E+08
0.10944E+08
0.11003E+08
0.11022E+08
0.11064E+08
0.10992E+08
0.11004E+08
0.11115E+08
0.11240E+08
0.11305E+08
0.11263E+08
0.11242E+08
0.11308E+08
0.11282E+08
0.11323E+08
0.11219E+08
0.11274E+08
0.11319E+08
0.11046E+08
0.11280E+08
0.11118E+08
0.11243E+08
0.11287E+08
0.11088E+08
0.11251E+08
0.11232E+08
0.11071E+08
0.11064E+08
0.11234E+08
0.10904E+08
0.11363E+08
0.11114E+08
0.11170E+08
0.11234E+08
0.11056E+08
0.11317E+08
0.10982E+08
</weights>
</event>
<event>
      6  10001 -1.11453E+07  8.94427E-01 -1.00000E+00  3.92939E-01
      21    -1     0     0   502   501  0.000000000E+00  0.000000000E+00  3.681309019E-03  3.681309019E-03  0.000000000E+00  0.00000E+00  9.000E+00
       2    -1     0     0   501     0  0.000000000E+00  0.000000000E+00 -5.649232741E+02  5.649232741E+02  0.000000000E+00  0.00000E+00  9.000E+00
      23     2     1     2     0     0  2.363000212E-01  4.683072080E-01 -5.416894577E+02  5.416908988E+02  1.134078745E+00  0.00000E+00  9.000E+00
      11     1     3     3     0     0 -3.948825865E-01 -8.763226558E-02 -1.564218563E+02  1.564223792E+02  5.110000000E-04  0.00000E+00  9.000E+00
     -11     1     3     3     0     0  6.311826078E-01  5.559394736E-01 -3.852676014E+02  3.852685196E+02  5.110000000E-04  0.00000E+00  9.000E+00
       2     1     1     2   502     0 -2.363000212E-01 -4.683072080E-01 -2.323013510E+01  2.323605659E+01  0.000000000E+00  0.00000E+00  9.000E+00
#rwgt            1          17  -115261427.58141451                3     9600512           0
<weights>
-.11145E+08
-.11314E+08
-.10902E+08
-.13751E+08
-.87355E+07
-.91702E+07
-.13910E+08
-.11131E+08
-.11159E+08
-.11164E+08
-.11147E+08
-.10963E+08
-.11351E+08
-.11155E+08
-.11150E+08
-.11219E+08
-.11029E+08
-.11513E+08
-.10633E+08
-.10558E+08
-.11558E+08
-.11111E+08
-.11172E+08
-.11009E+08
-.11246E+08
-.11409E+08
-.10982E+08
-.10686E+08
-.11663E+08
-.11060E+08
-.11197E+08
-.11043E+08
-.11246E+08
-.11587E+08
-.10610E+08
-.11084E+08
-.11202E+08
-.11138E+08
-.11160E+08
-.11275E+08
-.11030E+08
-.11128E+08
-.11163E+08
-.11135E+08
-.11156E+08
</weights>
</event>
<event>
      6  10001 -1.11453E+07  8.94427E-01 -1.00000E+00  6.07534E-01
      21    -1     0     0   502   501  0.000000000E+00  0.000000000E+00  3.348315212E-02  3.348315212E-02  0.000000000E+00  0.00000E+00  9.000E+00
      -2    -1     0     0     0   502  0.000000000E+00  0.000000000E+00 -1.893088146E+01  1.893088146E+01  0.000000000E+00  0.00000E+00  9.000E+00
      23     2     1     2     0     0  7.369377253E-02  2.927865456E-01 -1.743397024E+01  1.747011683E+01  1.081900588E+00  0.00000E+00  9.000E+00
      11     1     3     3     0     0 -2.826086483E-01 -8.915583851E-02 -1.580331394E+00  1.607875614E+00  5.110000000E-04  0.00000E+00  9.000E+00
     -11     1     3     3     0     0  3.563024209E-01  3.819423841E-01 -1.585363885E+01  1.586224122E+01  5.110000000E-04  0.00000E+00  9.000E+00
      -2     1     1     2     0   501 -7.369377253E-02 -2.927865456E-01 -1.463428062E+00  1.494247779E+00  0.000000000E+00  0.00000E+00  9.000E+00
#rwgt            1          14  -1074969.4187740639                3     9600743           0
<weights>
-.11145E+08
-.10732E+08
-.10965E+08
-.17124E+08
-.65001E+07
-.65987E+07
-.17857E+08
-.11215E+08
-.11076E+08
-.11015E+08
-.11075E+08
-.11030E+08
-.11150E+08
-.11066E+08
-.11078E+08
-.11160E+08
-.11127E+08
-.11214E+08
-.11186E+08
-.11177E+08
-.11215E+08
-.11198E+08
-.11221E+08
-.11144E+08
-.11237E+08
-.11219E+08
-.11084E+08
-.11186E+08
-.11124E+08
-.11159E+08
-.11206E+08
-.11108E+08
-.11202E+08
-.11184E+08
-.11107E+08
-.11216E+08
-.11079E+08
-.10909E+08
-.11386E+08
-.11089E+08
-.11194E+08
-.11164E+08
-.11125E+08
-.11234E+08
-.11052E+08
</weights>
</event>
<event>
      7  10001  1.11453E+07  2.26699E+00 -1.00000E+00  3.32198E-01
      21    -1     0     0   511   501  0.000000000E+00  0.000000000E+00  3.570138719E+01  3.570138719E+01  0.000000000E+00  0.00000E+00  9.000E+00
       2    -1     0     0   501     0  0.000000000E+00  0.000000000E+00 -3.609994472E+02  3.609994472E+02  0.000000000E+00  0.00000E+00  9.000E+00
      23     2     1     2     0     0 -6.940366652E-02  4.494324717E-01 -3.428500650E+02  3.428558873E+02  1.945663144E+00  0.00000E+00  9.000E+00
      11     1     3     3     0     0 -3.668712210E-01  9.036078563E-01 -3.084209730E+02  3.084225149E+02  5.110000000E-04  0.00000E+00  9.000E+00
     -11     1     3     3     0     0  2.974675545E-01 -4.541753846E-01 -3.442909195E+01  3.443337240E+01  5.110000000E-04  0.00000E+00  9.000E+00
       2     1     1     2   502     0  9.889465491E-01  1.622689871E+00 -1.806058117E+01  1.816027890E+01  0.000000000E+00  0.00000E+00  9.000E+00
      21     1     1     2   511   502 -9.195428826E-01 -2.072122342E+00  3.561258615E+01  3.568466817E+01  1.348699152E-06  0.00000E+00  9.000E+00
#rwgt            1          17   33566661.091835335                3     9615381           0
<weights>
0.11145E+08
0.12408E+08
0.96340E+07
0.13104E+08
0.91103E+07
0.10553E+08
0.11787E+08
0.11129E+08
0.11160E+08
0.11162E+08
0.11158E+08
0.11049E+08
0.11253E+08
0.11159E+08
0.11157E+08
0.11374E+08
0.10804E+08
0.11347E+08
0.10833E+08
0.10795E+08
0.11367E+08
0.11108E+08
0.11165E+08
0.11133E+08
0.11114E+08
0.11197E+08
0.11105E+08
0.10919E+08
0.11359E+08
0.11091E+08
0.11166E+08
0.11014E+08
0.11274E+08
0.11335E+08
0.10898E+08
0.11131E+08
0.11156E+08
0.11159E+08
0.11132E+08
0.11200E+08
0.11094E+08
0.11152E+08
0.11137E+08
0.11130E+08
0.11160E+08
</weights>
</event>
<event>
      6  10001  1.11453E+07  8.94427E-01 -1.00000E+00  5.76086E-01
      -1    -1     0     0     0   502  0.000000000E+00  0.000000000E+00  1.098434111E-01  1.098434111E-01  0.000000000E+00  0.00000E+00  9.000E+00
      21    -1     0     0   502   501  0.000000000E+00  0.000000000E+00 -1.327523394E+01  1.327523394E+01  0.000000000E+00  0.00000E+00  9.000E+00
      23     2     1     2     0     0 -2.154330902E-01 -1.977699433E-01 -5.146768870E+00  5.361124605E+00  1.472040373E+00  0.00000E+00  9.000E+00
      11     1     3     3     0     0 -8.002206979E-02 -2.945613130E-01 -1.143504219E-01  3.259542588E-01  5.110000000E-04  0.00000E+00  9.000E+00
     -11     1     3     3     0     0 -1.354110204E-01  9.679136968E-02 -5.032418448E+00  5.035170346E+00  5.110000000E-04  0.00000E+00  9.000E+00
      -1     1     1     2     0   501  2.154330902E-01  1.977699433E-01 -8.018621662E+00  8.023952750E+00  0.000000000E+00  0.00000E+00  9.000E+00
#rwgt            1           9   194899.29037699159                3     9624353           0
<weights>
0.11145E+08
0.13749E+08
0.85722E+07
0.12175E+08
0.96562E+07
0.12154E+08
0.93300E+07
0.11276E+08
0.11007E+08
0.10514E+08
0.10527E+08
0.10808E+08
0.10874E+08
0.10540E+08
0.10533E+08
0.11283E+08
0.11318E+08
0.11761E+08
0.11822E+08
0.11820E+08
0.11711E+08
0.11812E+08
0.11905E+08
0.11450E+08
0.11652E+08
0.11592E+08
0.10995E+08
0.11739E+08
0.11510E+08
0.11761E+08
0.11840E+08
0.11207E+08
0.11288E+08
0.11135E+08
0.11196E+08
0.11350E+08
0.10971E+08
0.11009E+08
0.11030E+08
0.11215E+08
0.11086E+08
0.11203E+08
0.11085E+08
0.11836E+08
0.10512E+08
</weights>
</event>
<event>
      7  10001  1.11453E+07  1.57670E+00 -1.00000E+00  4.04644E-01
       2    -1     0     0   501     0  0.000000000E+00  0.000000000E+00  3.759635416E-01  3.759635416E-01  0.000000000E+00  0.00000E+00  9.000E+00
      -2    -1     0     0     0   501  0.000000000E+00  0.000000000E+00 -1.116712997E+02  1.116712997E+02  0.000000000E+00  0.00000E+00  9.000E+00
      23     2     1     2     0     0 -1.013308667E+00 -9.383389833E-01 -5.328301669E+00  5.662193750E+00  1.327540917E+00  0.00000E+00  9.000E+00
      11     1     3     3     0     0 -1.087783930E-02  1.276728553E-01  8.497574959E-03  1.284178931E-01  5.110000000E-04  0.00000E+00  9.000E+00
     -11     1     3     3     0     0 -1.002430828E+00 -1.066011839E+00 -5.336799244E+00  5.533775857E+00  5.110000000E-04  0.00000E+00  9.000E+00
       2     1     1     2   502     0 -2.007999650E-01  1.944289034E+00 -4.504749954E+00  4.910534861E+00  0.000000000E+00  0.00000E+00  9.000E+00
      -2     1     1     2     0   502  1.214108632E+00 -1.005950051E+00 -1.014622845E+02  1.014745346E+02  0.000000000E+00  0.00000E+00  9.000E+00
#rwgt            1          24   889702.31885087129                3     9637038           0
<weights>
0.11145E+08
0.12794E+08
0.94901E+07
0.12029E+08
0.98447E+07
0.11523E+08
0.10298E+08
0.11227E+08
0.11058E+08
0.10716E+08
0.10710E+08
0.10901E+08
0.10970E+08
0.10733E+08
0.10720E+08
0.11247E+08
0.11254E+08
0.11577E+08
0.11600E+08
0.11599E+08
0.11542E+08
0.11613E+08
0.11660E+08
0.11376E+08
0.11470E+08
0.11431E+08
0.11059E+08
0.11557E+08
0.11407E+08
0.11582E+08
0.11631E+08
0.11197E+08
0.11237E+08
0.11131E+08
0.11190E+08
0.11280E+08
0.11031E+08
0.11090E+08
0.11044E+08
0.11185E+08
0.11112E+08
0.11184E+08
0.11105E+08
0.11623E+08
0.10707E+08
</weights>
</event>
<event>
      7  10001  1.11453E+07  9.49015E+00 -1.00000E+00  1.97885E-01
      -2    -1     0     0     0   502  0.000000000E+00  0.000000000E+00  5.892867293E+01  5.892867293E+01  0.000000000E+00  0.00000E+00  9.000E+00
      21    -1     0     0   502   501  0.000000000E+00  0.000000000E+00 -4.244634281E-01  4.244634281E-01  0.000000000E+00  0.00000E+00  9.000E+00
      23     2     1     2     0     0  1.001639279E+00 -6.410418124E-01  3.534636445E+01  3.538418844E+01  1.122985209E+00  0.00000E+00  9.000E+00
      11     1     3     3     0     0  1.156835661E-01 -2.228210259E-01  2.218129401E+01  2.218271480E+01  5.110000000E-04  0.00000E+00  9.000E+00
     -11     1     3     3     0     0  8.859557127E-01 -4.182207864E-01  1.316507044E+01  1.320147364E+01  5.110000000E-04  0.00000E+00  9.000E+00
      -2     1     1     2     0   511  6.080838983E-01  6.442262149E-01  2.192107433E+01  2.193896746E+01  0.000000000E+00  0.00000E+00  9.000E+00
      21     1     1     2   511   501 -1.609723177E+00 -3.184402557E-03  1.236770723E+00  2.029980460E+00  8.349970416E-07  0.00000E+00  9.000E+00
#rwgt            2         101   11319244.849815160                3     9698644           0
<weights>
0.11145E+08
0.10905E+08
0.11173E+08
0.13253E+08
0.89520E+07
0.91702E+07
0.13910E+08
0.11190E+08
0.11098E+08
0.10838E+08
0.10837E+08
0.10966E+08
0.11022E+08
0.10859E+08
0.10846E+08
0.11226E+08
0.11195E+08
0.11443E+08
0.11465E+08
0.11458E+08
0.11420E+08
0.11474E+08
0.11496E+08
0.11352E+08
0.11337E+08
0.11289E+08
0.11214E+08
0.11413E+08
0.11347E+08
0.11448E+08
0.11486E+08
0.11177E+08
0.11215E+08
0.11138E+08
0.11174E+08
0.11224E+08
0.11084E+08
0.11102E+08
0.11115E+08
0.11159E+08
0.11134E+08
0.11179E+08
0.11110E+08
0.11482E+08
0.10834E+08
</weights>
</event>
<event>
      7  10001  1.11453E+07  1.00815E+00 -1.00000E+00  5.59449E-01
      21    -1     0     0   502   512  0.000000000E+00  0.000000000E+00  9.396414051E+01  9.396414051E+01  0.000000000E+00  0.00000E+00  9.000E+00
       3    -1     0     0   501     0  0.000000000E+00  0.000000000E+00 -3.876157186E+00  3.876157186E+00  0.000000000E+00  0.00000E+00  9.000E+00
      23     2     1     2     0     0  2.883614868E-01 -1.526573050E-01 -3.699118031E+00  3.942829663E+00  1.325132050E+00  0.00000E+00  9.000E+00
      11     1     3     3     0     0  3.229722268E-01 -5.899591293E-01 -9.802644086E-01  1.188815127E+00  5.110000000E-04  0.00000E+00  9.000E+00
     -11     1     3     3     0     0 -3.461074004E-02  4.373018242E-01 -2.718853622E+00  2.754014536E+00  5.110000000E-04  0.00000E+00  9.000E+00
       3     1     1     2   502     0  7.153260710E-01  5.791789433E-02  2.404741146E+00  2.509546941E+00  0.000000000E+00  0.00000E+00  9.000E+00
      21     1     1     2   501   512 -1.003687558E+00  9.473941070E-02  9.138236021E+01  9.138792109E+01  0.000000000E+00  0.00000E+00  9.000E+00
#rwgt            1          18   690981.14386332384                3     9701004           0
<weights>
0.11145E+08
0.13672E+08
0.84768E+07
0.13563E+08
0.86924E+07
0.11192E+08
0.10806E+08
0.11190E+08
0.11095E+08
0.10764E+08
0.10783E+08
0.11080E+08
0.10820E+08
0.10786E+08
0.10776E+08
0.11382E+08
0.10897E+08
0.11189E+08
0.12127E+08
0.12045E+08
0.11181E+08
0.11523E+08
0.11650E+08
0.12421E+08
0.10656E+08
0.98976E+07
0.14638E+08
0.11030E+08
0.12077E+08
0.11495E+08
0.11622E+08
0.11266E+08
0.11153E+08
0.11159E+08
0.11164E+08
0.11254E+08
0.11053E+08
0.11189E+08
0.10983E+08
0.11203E+08
0.11091E+08
0.11231E+08
0.11054E+08
0.11563E+08
0.10765E+08
</weights>
</event>
<event>
      6  10001 -1.11453E+07  8.94427E-01 -1.00000E+00  5.95193E-01
      21    -1     0     0   502   501  0.000000000E+00  0.000000000E+00  4.151498145E-02  4.151498145E-02  0.000000000E+00  0.00000E+00  9.000E+00
       4    -1     0     0   501     0  0.000000000E+00  0.000000000E+00 -8.336194490E+01  8.336194490E+01  0.000000000E+00  0.00000E+00  9.000E+00
      23     2     1     2     0     0  3.497306965E-01 -6.048635973E-02 -8.054582916E+01  8.060625064E+01  3.100173760E+00  0.00000E+00  9.000E+00
      11     1     3     3     0     0  1.347217309E+00 -3.760457680E-02 -1.725389671E+01  1.730645430E+01  5.110000000E-04  0.00000E+00  9.000E+00
     -11     1     3     3     0     0 -9.974866128E-01 -2.288178293E-02 -6.329193245E+01  6.329979634E+01  5.110000000E-04  0.00000E+00  9.000E+00
       4     1     1     2   502     0 -3.497306965E-01  6.048635973E-02 -2.774600762E+00  2.797209243E+00  0.000000000E+00  0.00000E+00  9.000E+00
#rwgt            1          19  -495948.68002648035                3     9715367           0
<weights>
-.11145E+08
-.89046E+07
-.12993E+08
-.14375E+08
-.82953E+07
-.68631E+07
-.17451E+08
-.11085E+08
-.11203E+08
-.11368E+08
-.11310E+08
-.11125E+08
-.11385E+08
-.11369E+08
-.11350E+08
-.11113E+08
-.11056E+08
-.10950E+08
-.10873E+08
-.10872E+08
-.10969E+08
-.10929E+08
-.10853E+08
-.11099E+08
-.10893E+08
-.10979E+08
-.11194E+08
-.10977E+08
-.10989E+08
-.10944E+08
-.10913E+08
-.11146E+08
-.11075E+08
-.11119E+08
-.11163E+08
-.11128E+08
-.11154E+08
-.11168E+08
-.11179E+08
-.11014E+08
-.11268E+08
-.11072E+08
-.11224E+08
-.10919E+08
-.11346E+08
</weights>
</event>
<event>
      7  10001  1.11453E+07  2.69233E+00 -1.00000E+00  3.06459E-01
       4    -1     0     0   501     0  0.000000000E+00  0.000000000E+00  9.319061649E-01  9.319061649E-01  0.000000000E+00  0.00000E+00  9.000E+00
      21    -1     0     0   502   501  0.000000000E+00  0.000000000E+00 -3.721437603E+00  3.721437603E+00  0.000000000E+00  0.00000E+00  9.000E+00
      23     2     1     2     0     0  2.384695333E-01 -1.014455248E-01  4.295415350E-01  1.361134735E+00  1.265315345E+00  0.00000E+00  9.000E+00
      11     1     3     3     0     0 -2.049328006E-01 -5.853553111E-01  1.052641913E-01  6.290620829E-01  5.110000000E-04  0.00000E+00  9.000E+00
     -11     1     3     3     0     0  4.434023339E-01  4.839097863E-01  3.242773436E-01  7.320726519E-01  5.110000000E-04  0.00000E+00  9.000E+00
       4     1     1     2   511     0  7.416939961E-02 -4.965419834E-02 -4.641048753E-02  1.006010567E-01  0.000000000E+00  0.00000E+00  9.000E+00
      21     1     1     2   502   511 -3.126389329E-01  1.510997232E-01 -3.172662485E+00  3.191607976E+00  4.214684851E-08  0.00000E+00  9.000E+00
#rwgt            2         308   221954.99680413964                3     9726758           0
<weights>
0.11145E+08
0.11734E+08
0.10215E+08
0.14261E+08
0.81848E+07
0.91702E+07
0.13910E+08
0.11205E+08
0.11083E+08
0.10874E+08
0.10889E+08
0.10978E+08
0.11054E+08
0.10901E+08
0.10896E+08
0.11220E+08
0.11172E+08
0.11395E+08
0.11400E+08
0.11397E+08
0.11375E+08
0.11413E+08
0.11441E+08
0.11275E+08
0.11338E+08
0.11289E+08
0.11112E+08
0.11364E+08
0.11297E+08
0.11383E+08
0.11425E+08
0.11161E+08
0.11212E+08
0.11141E+08
0.11166E+08
0.11241E+08
0.11063E+08
0.11042E+08
0.11175E+08
0.11143E+08
0.11148E+08
0.11169E+08
0.11121E+08
0.11429E+08
0.10881E+08
</weights>
</event>
<event>
      7  10001  1.11453E+07  8.94427E-01 -1.00000E+00  6.07649E-01
       1    -1     0     0   501     0  0.000000000E+00  0.000000000E+00  8.089788154E-01  8.089788154E-01  0.000000000E+00  0.00000E+00  9.000E+00
       2    -1     0     0   502     0  0.000000000E+00  0.000000000E+00 -4.103974482E+01  4.103974482E+01  0.000000000E+00  0.00000E+00  9.000E+00
      23     2     1     2     0     0 -1.775549279E+00  1.801266668E+00 -2.642916207E+01  2.663285088E+01  2.100238505E+00  0.00000E+00  9.000E+00
      11     1     3     3     0     0 -1.271632775E+00 -1.199494644E-01 -1.195723354E+01  1.202525975E+01  5.110000000E-04  0.00000E+00  9.000E+00
     -11     1     3     3     0     0 -5.039165039E-01  1.921216132E+00 -1.447192853E+01  1.460759114E+01  5.110000000E-04  0.00000E+00  9.000E+00
       1     1     1     2   502     0  1.686600414E+00 -1.989253976E+00 -1.701490228E+00  3.113971954E+00  0.000000000E+00  0.00000E+00  9.000E+00
       2     1     1     2   501     0  8.894886504E-02  1.879873082E-01 -1.210011371E+01  1.210190079E+01  0.000000000E+00  0.00000E+00  9.000E+00
#rwgt            2         224   14502.469854586538                3     9727522           0
<weights>
0.11145E+08
0.10861E+08
0.11347E+08
0.13200E+08
0.90921E+07
0.91702E+07
0.13910E+08
0.11192E+08
0.11099E+08
0.11051E+08
0.11095E+08
0.11139E+08
0.11049E+08
0.11085E+08
0.11093E+08
0.11094E+08
0.11217E+08
0.11092E+08
0.11329E+08
0.11340E+08
0.11082E+08
0.11197E+08
0.11196E+08
0.11236E+08
0.11131E+08
0.11138E+08
0.11145E+08
0.11332E+08
0.10940E+08
0.11192E+08
0.11174E+08
0.11144E+08
0.11160E+08
0.11069E+08
0.11253E+08
0.11118E+08
0.11173E+08
0.11012E+08
0.11278E+08
0.11079E+08
0.11199E+08
0.11209E+08
0.11078E+08
0.11210E+08
0.11079E+08
</weights>
</event>
<event>
      6  10001 -1.11453E+07  8.94427E-01 -1.00000E+00  2.22339E-01
       1    -1     0     0   501     0  0.000000000E+00  0.000000000E+00  3.087626516E+02  3.087626516E+02  0.000000000E+00  0.00000E+00  9.000E+00
      21    -1     0     0   502   501  0.000000000E+00  0.000000000E+00 -1.491848590E-03  1.491848590E-03  0.000000000E+00  0.00000E+00  9.000E+00
      23     2     1     2     0     0  2.149187068E-01 -1.794874726E-01  2.628683905E+02  2.628705200E+02  1.020364166E+00  0.00000E+00  9.000E+00
      11     1     3     3     0     0  4.953863390E-01 -2.604370309E-01  8.273679331E+01  8.273868625E+01  5.110000000E-04  0.00000E+00  9.000E+00
     -11     1     3     3     0     0 -2.804676322E-01  8.094955832E-02  1.801315972E+02  1.801318338E+02  5.110000000E-04  0.00000E+00  9.000E+00
       1     1     1     2   502     0 -2.149187068E-01  1.794874726E-01  4.589276918E+01  4.589362340E+01  0.000000000E+00  0.00000E+00  9.000E+00
#rwgt            1          22  -1747977.5848699673                3     9728837           0
<weights>
-.11145E+08
-.11806E+08
-.10293E+08
-.14363E+08
-.82479E+07
-.91610E+07
-.13909E+08
-.11172E+08
-.11119E+08
-.10826E+08
-.10817E+08
-.10963E+08
-.11008E+08
-.10844E+08
-.10828E+08
-.11225E+08
-.11209E+08
-.11458E+08
-.11499E+08
-.11487E+08
-.11435E+08
-.11497E+08
-.11516E+08
-.11406E+08
-.11328E+08
-.11286E+08
-.11348E+08
-.11431E+08
-.11368E+08
-.11474E+08
-.11509E+08
-.11182E+08
-.11217E+08
-.11138E+08
-.11177E+08
-.11209E+08
-.11100E+08
-.11127E+08
-.11089E+08
-.11165E+08
-.11129E+08
-.11184E+08
-.11104E+08
-.11501E+08
-.10817E+08
</weights>
</event>
<event>
      7  10001  1.11453E+07  8.94427E-01 -1.00000E+00  6.07649E-01
      -2    -1     0     0     0   502  0.000000000E+00  0.000000000E+00  2.720170833E+00  2.720170833E+00  0.000000000E+00  0.00000E+00  9.000E+00
      21    -1     0     0   501   511  0.000000000E+00  0.000000000E+00 -2.591064270E+00  2.591064270E+00  0.000000000E+00  0.00000E+00  9.000E+00
      23     2     1     2     0     0 -1.506416376E-02 -2.259992995E-01  2.069272014E+00  2.403942820E+00  1.202394195E+00  0.00000E+00  9.000E+00
      11     1     3     3     0     0  1.596179008E-01  4.464234861E-01  5.068593479E-01  6.940305921E-01  5.110000000E-04  0.00000E+00  9.000E+00
     -11     1     3     3     0     0 -1.746820646E-01 -6.724227855E-01  1.562412666E+00  1.709912228E+00  5.110000000E-04  0.00000E+00  9.000E+00
      21     1     1     2   501   502 -7.872783562E-01  5.169834418E-02 -1.931242103E+00  2.086186949E+00  4.214684851E-08  0.00000E+00  9.000E+00
      -2     1     1     2     0   511  8.023425200E-01  1.743009553E-01 -8.923349428E-03  8.211053334E-01  0.000000000E+00  0.00000E+00  9.000E+00
#rwgt            2         102   448591.63176058151                3     9731032           0
<weights>
0.11145E+08
0.11289E+08
0.10746E+08
0.13720E+08
0.86106E+07
0.91702E+07
0.13910E+08
0.11203E+08
0.11085E+08
0.10867E+08
0.10878E+08
0.10975E+08
0.11047E+08
0.10893E+08
0.10886E+08
0.11222E+08
0.11176E+08
0.11406E+08
0.11412E+08
0.11409E+08
0.11385E+08
0.11425E+08
0.11452E+08
0.11289E+08
0.11338E+08
0.11289E+08
0.11127E+08
0.11374E+08
0.11307E+08
0.11396E+08
0.11437E+08
0.11164E+08
0.11213E+08
0.11140E+08
0.11168E+08
0.11238E+08
0.11067E+08
0.11055E+08
0.11163E+08
0.11146E+08
0.11145E+08
0.11171E+08
0.11119E+08
0.11440E+08
0.10871E+08
</weights>
</event>
<event>
      6  10001 -1.11453E+07  8.94427E-01 -1.00000E+00  1.90469E-01
      -2    -1     0     0     0   502  0.000000000E+00  0.000000000E+00  2.352320486E-02  2.352320486E-02  0.000000000E+00  0.00000E+00  9.000E+00
       2    -1     0     0   501     0  0.000000000E+00  0.000000000E+00 -6.090488532E+01  6.090488532E+01  0.000000000E+00  0.00000E+00  9.000E+00
      23     2     1     2     0     0  3.996094129E-01  2.669740687E-02 -5.304346790E+01  5.308028861E+01  1.935756150E+00  0.00000E+00  9.000E+00
      11     1     3     3     0     0 -4.656191852E-01 -3.146668113E-01 -5.689567545E+00  5.717254195E+00  5.110000000E-04  0.00000E+00  9.000E+00
     -11     1     3     3     0     0  8.652285981E-01  3.413642181E-01 -4.735390035E+01  4.736303441E+01  5.110000000E-04  0.00000E+00  9.000E+00
      21     1     1     2   501   502 -3.996094129E-01 -2.669740687E-02 -7.837894223E+00  7.848119920E+00  1.685873940E-07  0.00000E+00  9.000E+00
#rwgt            1           8  -8659811.9802106675                3     9732879           0
<weights>
-.11145E+08
-.12772E+08
-.94345E+07
-.15523E+08
-.75594E+07
-.91702E+07
-.13910E+08
-.11177E+08
-.11114E+08
-.11102E+08
-.11136E+08
-.11158E+08
-.11076E+08
-.11130E+08
-.11135E+08
-.11122E+08
-.11153E+08
-.11067E+08
-.11257E+08
-.11268E+08
-.11059E+08
-.11153E+08
-.11145E+08
-.11235E+08
-.11068E+08
-.11090E+08
-.11167E+08
-.11283E+08
-.10934E+08
-.11156E+08
-.11133E+08
-.11140E+08
-.11150E+08
-.11069E+08
-.11246E+08
-.11126E+08
-.11162E+08
-.11059E+08
-.11242E+08
-.11082E+08
-.11196E+08
-.11204E+08
-.11083E+08
-.11162E+08
-.11124E+08
</weights>
</event>
<event>
      7  10001  1.11453E+07  4.92289E+00 -1.00000E+00  2.42047E-01
      21    -1     0     0   502   501  0.000000000E+00  0.000000000E+00  1.890674340E+01  1.890674340E+01  0.000000000E+00  0.00000E+00  9.000E+00
       3    -1     0     0   501     0  0.000000000E+00  0.000000000E+00 -4.230064760E+00  4.230064760E+00  0.000000000E+00  0.00000E+00  9.000E+00
      23     2     1     2     0     0 -1.497094240E-01  2.942605111E-01 -6.689640910E-01  7.742646859E+00  7.706624765E+00  0.00000E+00  9.000E+00
      11     1     3     3     0     0  1.391328634E+00  1.313208655E+00  3.044086723E+00  3.595382674E+00  5.110000000E-04  0.00000E+00  9.000E+00
     -11     1     3     3     0     0 -1.541038058E+00 -1.018948143E+00 -3.713050814E+00  4.147264185E+00  5.110000000E-04  0.00000E+00  9.000E+00
       3     1     1     2   511     0 -3.940428022E-02 -2.596375750E-01  7.060578391E-01  7.533140379E-01  0.000000000E+00  0.00000E+00  9.000E+00
      21     1     1     2   502   511  1.891137042E-01 -3.462293610E-02  1.463958489E+01  1.464084726E+01  2.384185791E-07  0.00000E+00  9.000E+00
#rwgt            2         192   1135590.3037976075                3     9734662           0
<weights>
0.11145E+08
0.10632E+08
0.11536E+08
0.12922E+08
0.92435E+07
0.91702E+07
0.13910E+08
0.11201E+08
0.11086E+08
0.10837E+08
0.10868E+08
0.11041E+08
0.10948E+08
0.10867E+08
0.10865E+08
0.11326E+08
0.10983E+08
0.11282E+08
0.11686E+08
0.11655E+08
0.11265E+08
0.11431E+08
0.11514E+08
0.11734E+08
0.11022E+08
0.10573E+08
0.12629E+08
0.11153E+08
0.11670E+08
0.11397E+08
0.11487E+08
0.11203E+08
0.11182E+08
0.11155E+08
0.11157E+08
0.11254E+08
0.11051E+08
0.11073E+08
0.11125E+08
0.11163E+08
0.11128E+08
0.11197E+08
0.11091E+08
0.11465E+08
0.10849E+08
</weights>
</event>
<event>
      7  10001  1.11453E+07  1.72660E+00 -1.00000E+00  3.83618E-01
      -1    -1     0     0     0   502  0.000000000E+00  0.000000000E+00  3.772050250E+00  3.772050250E+00  0.000000000E+00  0.00000E+00  9.000E+00
      21    -1     0     0   502   501  0.000000000E+00  0.000000000E+00 -6.953400215E-01  6.953400215E-01  0.000000000E+00  0.00000E+00  9.000E+00
      23     2     1     2     0     0  4.822753381E-01 -2.842140504E-01  2.296593179E+00  2.870892007E+00  1.629206420E+00  0.00000E+00  9.000E+00
      11     1     3     3     0     0 -2.532150760E-01 -3.404714415E-01  2.049508772E+00  2.092970412E+00  5.110000000E-04  0.00000E+00  9.000E+00
     -11     1     3     3     0     0  7.354904141E-01  5.625739104E-02  2.470844072E-01  7.779215955E-01  5.110000000E-04  0.00000E+00  9.000E+00
      -1     1     1     2     0   512 -3.061345797E-01 -3.194333402E-01  8.555359902E-01  9.631707378E-01  0.000000000E+00  0.00000E+00  9.000E+00
      21     1     1     2   512   501 -1.761407585E-01  6.036473906E-01 -7.541894102E-02  6.333275263E-01  5.116344130E-08  0.00000E+00  9.000E+00
#rwgt            2         131   2238312.1230118419                3     9736414           0
<weights>
0.11145E+08
0.11622E+08
0.10382E+08
0.14125E+08
0.83185E+07
0.91702E+07
0.13910E+08
0.11194E+08
0.11094E+08
0.10845E+08
0.10847E+08
0.10968E+08
0.11028E+08
0.10867E+08
0.10856E+08
0.11225E+08
0.11190E+08
0.11435E+08
0.11452E+08
0.11446E+08
0.11412E+08
0.11462E+08
0.11486E+08
0.11336E+08
0.11338E+08
0.11289E+08
0.11188E+08
0.11404E+08
0.11338E+08
0.11436E+08
0.11475E+08
0.11174E+08
0.11215E+08
0.11139E+08
0.11172E+08
0.11228E+08
0.11079E+08
0.11091E+08
0.11126E+08
0.11156E+08
0.11137E+08
0.11177E+08
0.11112E+08
0.11472E+08
0.10843E+08
</weights>
</event>
<event>
      6  10001 -1.11453E+07  8.94427E-01 -1.00000E+00  4.34735E-01
      21    -1     0     0   502   501  0.000000000E+00  0.000000000E+00  2.251445334E-02  2.251445334E-02  0.000000000E+00  0.00000E+00  9.000E+00
       2    -1     0     0   501     0  0.000000000E+00  0.000000000E+00 -4.774165954E+01  4.774165954E+01  0.000000000E+00  0.00000E+00  9.000E+00
      23     2     1     2     0     0 -1.085681854E-01 -3.359358793E-01 -4.581482385E+01  4.582740366E+01  1.014002713E+00  0.00000E+00  9.000E+00
      11     1     3     3     0     0  1.868680651E-01  2.174420226E-01 -5.319040233E+00  5.326761677E+00  5.110000000E-04  0.00000E+00  9.000E+00
     -11     1     3     3     0     0 -2.954362505E-01 -5.533779020E-01 -4.049578362E+01  4.050064198E+01  5.110000000E-04  0.00000E+00  9.000E+00
       2     1     1     2   502     0  1.085681854E-01  3.359358793E-01 -1.904321233E+00  1.936770333E+00  0.000000000E+00  0.00000E+00  9.000E+00
#rwgt            1          17  -14268141.400474416                3     9737045           0
<weights>
-.11145E+08
-.12572E+08
-.95792E+07
-.15279E+08
-.76753E+07
-.91702E+07
-.13910E+08
-.11187E+08
-.11103E+08
-.11071E+08
-.11112E+08
-.11148E+08
-.11058E+08
-.11103E+08
-.11111E+08
-.11102E+08
-.11195E+08
-.11079E+08
-.11303E+08
-.11315E+08
-.11069E+08
-.11179E+08
-.11174E+08
-.11236E+08
-.11106E+08
-.11118E+08
-.11154E+08
-.11314E+08
-.10933E+08
-.11177E+08
-.11156E+08
-.11143E+08
-.11155E+08
-.11067E+08
-.11253E+08
-.11121E+08
-.11169E+08
-.11027E+08
-.11268E+08
-.11079E+08
-.11199E+08
-.11207E+08
-.11079E+08
-.11191E+08
-.11097E+08
</weights>
</event>
<event>
      7  10001  1.11453E+07  9.40382E+00 -1.00000E+00  1.98349E-01
      21    -1     0     0   511   502  0.000000000E+00  0.000000000E+00  5.279980051E-01  5.279980051E-01  0.000000000E+00  0.00000E+00  9.000E+00
       2    -1     0     0   501     0  0.000000000E+00  0.000000000E+00 -8.927780912E+02  8.927780912E+02  0.000000000E+00  0.00000E+00  9.000E+00
      23     2     1     2     0     0 -4.151537548E+00  1.208542277E+01 -6.633193261E+02  6.634959600E+02  8.430172834E+00  0.00000E+00  9.000E+00
      11     1     3     3     0     0 -2.512105014E-01  1.121793596E+01 -4.551478073E+02  4.552860987E+02  5.110000000E-04  0.00000E+00  9.000E+00
     -11     1     3     3     0     0 -3.900327047E+00  8.674868068E-01 -2.081715189E+02  2.082098613E+02  5.110000000E-04  0.00000E+00  9.000E+00
      21     1     1     2   501   502  5.551527292E+00 -2.786397325E+00 -2.897365498E+01  2.963201222E+01  5.840038640E-07  0.00000E+00  9.000E+00
       2     1     1     2   511     0 -1.399989744E+00 -9.299025444E+00 -1.999571121E+02  2.001781170E+02  0.000000000E+00  0.00000E+00  9.000E+00
#rwgt            1           8   195013651.74230123                3     9738052           0
<weights>
0.11145E+08
0.99070E+07
0.12638E+08
0.12023E+08
0.10142E+08
0.91839E+07
0.13889E+08
0.11133E+08
0.11157E+08
0.11163E+08
0.11143E+08
0.10939E+08
0.11376E+08
0.11153E+08
0.11148E+08
0.11112E+08
0.11183E+08
0.11555E+08
0.10585E+08
0.10499E+08
0.11608E+08
0.11116E+08
0.11171E+08
0.10968E+08
0.11292E+08
0.11494E+08
0.10934E+08
0.10616E+08
0.11756E+08
0.11053E+08
0.11206E+08
0.11079E+08
0.11209E+08
0.11671E+08
0.10517E+08
0.11068E+08
0.11216E+08
0.11129E+08
0.11172E+08
0.11300E+08
0.11009E+08
0.11122E+08
0.11169E+08
0.11137E+08
0.11154E+08
</weights>
</event>
<event>
      7  10001  1.11453E+07  8.94427E-01 -1.00000E+00  6.07649E-01
       5    -1     0     0   501     0  0.000000000E+00  0.000000000E+00  2.515725393E+00  2.515725393E+00  0.000000000E+00  0.00000E+00  9.000E+00
       2    -1     0     0   502     0  0.000000000E+00  0.000000000E+00 -2.177676000E+01  2.177676000E+01  0.000000000E+00  0.00000E+00  9.000E+00
      23     2     1     2     0     0  1.179082319E-01  1.475245580E-01 -2.084595843E+01  2.088354445E+01  1.238055072E+00  0.00000E+00  9.000E+00
      11     1     3     3     0     0 -3.563370309E-01  3.696513975E-01 -4.499486156E+00  4.528685700E+00  5.110000000E-04  0.00000E+00  9.000E+00
     -11     1     3     3     0     0  4.742452628E-01 -2.221268395E-01 -1.634647227E+01  1.635485875E+01  5.110000000E-04  0.00000E+00  9.000E+00
       5     1     1     2   502     0 -4.335488149E-01 -6.836139983E-02  2.447749999E+00  2.486788675E+00  0.000000000E+00  0.00000E+00  9.000E+00
       2     1     1     2   501     0  3.156405830E-01 -7.916315817E-02 -8.628261855E-01  9.221522703E-01  0.000000000E+00  0.00000E+00  9.000E+00
#rwgt            2         344   405915.80657921580                3     9741018           0
<weights>
0.11145E+08
0.11649E+08
0.10194E+08
0.14158E+08
0.81682E+07
0.91702E+07
0.13910E+08
0.11196E+08
0.11093E+08
0.10974E+08
0.11014E+08
0.11094E+08
0.11019E+08
0.11006E+08
0.11015E+08
0.11087E+08
0.11280E+08
0.11180E+08
0.11410E+08
0.11417E+08
0.11168E+08
0.11281E+08
0.11297E+08
0.11247E+08
0.11231E+08
0.11227E+08
0.11103E+08
0.11391E+08
0.11008E+08
0.11267E+08
0.11262E+08
0.11145E+08
0.11186E+08
0.11086E+08
0.11240E+08
0.11106E+08
0.11192E+08
0.10984E+08
0.11268E+08
0.11093E+08
0.11187E+08
0.11212E+08
0.11075E+08
0.11298E+08
0.10999E+08
</weights>
</event>
<event>
      6  10001 -1.11453E+07  8.94427E-01 -1.00000E+00  6.03110E-01
       2    -1     0     0   501     0  0.000000000E+00  0.000000000E+00  5.888695308E+00  5.888695308E+00  0.000000000E+00  0.00000E+00  9.000E+00
      -2    -1     0     0     0   502  0.000000000E+00  0.000000000E+00 -1.481531591E-01  1.481531591E-01  0.000000000E+00  0.00000E+00  9.000E+00
      23     2     1     2     0     0 -3.847866683E-01 -8.876715400E-02  4.896489001E+00  5.104986833E+00  1.389008872E+00  0.00000E+00  9.000E+00
      11     1     3     3     0     0  9.185383121E-02  5.990072239E-01  2.162188020E+00  2.245507532E+00  5.110000000E-04  0.00000E+00  9.000E+00
     -11     1     3     3     0     0 -4.766404995E-01 -6.877743779E-01  2.734300980E+00  2.859479301E+00  5.110000000E-04  0.00000E+00  9.000E+00
      21     1     1     2   501   502  3.847866683E-01  8.876715400E-02  8.440531477E-01  9.318616334E-01  0.000000000E+00  0.00000E+00  9.000E+00
#rwgt            1          23  -121340.04246867492                3     9741174           0
<weights>
-.11145E+08
-.83430E+07
-.11399E+08
-.38648E+08
0.69743E+07
0.88180E+07
-.41523E+08
-.13063E+08
-.87137E+07
-.11052E+08
-.11355E+08
-.10920E+08
-.11505E+08
-.11176E+08
-.11325E+08
-.11509E+08
-.10459E+08
-.10903E+08
-.11062E+08
-.11138E+08
-.10869E+08
-.10863E+08
-.11099E+08
-.10328E+08
-.11731E+08
-.10891E+08
-.10894E+08
-.10716E+08
-.11258E+08
-.10729E+08
-.10995E+08
-.11248E+08
-.10963E+08
-.11153E+08
-.11073E+08
-.12643E+08
-.94870E+07
-.10390E+08
-.11787E+08
-.11032E+08
-.11264E+08
-.10907E+08
-.11400E+08
-.11039E+08
-.11213E+08
</weights>
</event>
<event>
      7  10001  1.11453E+07  3.80959E+00 -1.00000E+00  2.65241E-01
      21    -1     0     0   502   501  0.000000000E+00  0.000000000E+00  7.555754424E+00  7.555754424E+00  0.000000000E+00  0.00000E+00  9.000E+00
      -4    -1     0     0     0   502  0.000000000E+00  0.000000000E+00 -6.456712074E-01  6.456712074E-01  0.000000000E+00  0.00000E+00  9.000E+00
      23     2     1     2     0     0  4.933743510E-01  2.316333051E-01  4.817047208E-01  1.420384226E+00  1.219991670E+00  0.00000E+00  9.000E+00
      11     1     3     3     0     0  5.020074364E-01  1.393224870E-01  8.738829208E-01  1.017395617E+00  5.110000000E-04  0.00000E+00  9.000E+00
     -11     1     3     3     0     0 -8.633085400E-03  9.231081815E-02 -3.921782001E-01  4.029886091E-01  5.110000000E-04  0.00000E+00  9.000E+00
      -4     1     1     2     0   511  3.718990298E-01 -1.744230764E-01  1.412279488E-01  4.343703851E-01  0.000000000E+00  0.00000E+00  9.000E+00
      21     1     1     2   511   501 -8.652733808E-01 -5.721022872E-02  6.287150547E+00  6.346671020E+00  8.429369702E-08  0.00000E+00  9.000E+00
#rwgt            2         154   1339174.1944586642                3     9751434           0
<weights>
0.11145E+08
0.11555E+08
0.10446E+08
0.14044E+08
0.83696E+07
0.91702E+07
0.13910E+08
0.11196E+08
0.11090E+08
0.10812E+08
0.10801E+08
0.10950E+08
0.11009E+08
0.10829E+08
0.10812E+08
0.11232E+08
0.11214E+08
0.11484E+08
0.11494E+08
0.11490E+08
0.11457E+08
0.11516E+08
0.11534E+08
0.11365E+08
0.11364E+08
0.11327E+08
0.11162E+08
0.11459E+08
0.11366E+08
0.11494E+08
0.11528E+08
0.11189E+08
0.11216E+08
0.11133E+08
0.11183E+08
0.11235E+08
0.11074E+08
0.11135E+08
0.11076E+08
0.11170E+08
0.11125E+08
0.11180E+08
0.11109E+08
0.11520E+08
0.10801E+08
</weights>
</event>
<event>
      6  10001 -1.11453E+07  8.94427E-01 -1.00000E+00  6.33950E-01
      -2    -1     0     0     0   502  0.000000000E+00  0.000000000E+00  5.998865165E+02  5.998865165E+02  0.000000000E+00  0.00000E+00  9.000E+00
      21    -1     0     0   502   501  0.000000000E+00  0.000000000E+00 -2.821176716E-03  2.821176716E-03  0.000000000E+00  0.00000E+00  9.000E+00
      23     2     1     2     0     0  4.395397875E-01 -3.126513836E-01  4.655365284E+02  4.655410879E+02  1.988552896E+00  0.00000E+00  9.000E+00
      11     1     3     3     0     0  6.820310083E-01  5.329801470E-01  1.077031192E+02  1.077065974E+02  5.110000000E-04  0.00000E+00  9.000E+00
     -11     1     3     3     0     0 -2.424912208E-01 -8.456315306E-01  3.578334092E+02  3.578344906E+02  5.110000000E-04  0.00000E+00  9.000E+00
      -2     1     1     2     0   501 -4.395397875E-01  3.126513836E-01  1.343471669E+02  1.343482497E+02  0.000000000E+00  0.00000E+00  9.000E+00
#rwgt            1           7  -840769.44376437785                3     9754003           0
<weights>
-.11145E+08
-.11419E+08
-.10675E+08
-.13886E+08
-.85539E+07
-.91654E+07
-.13909E+08
-.11169E+08
-.11123E+08
-.10821E+08
-.10809E+08
-.10961E+08
-.11004E+08
-.10838E+08
-.10820E+08
-.11226E+08
-.11213E+08
-.11465E+08
-.11510E+08
-.11497E+08
-.11442E+08
-.11506E+08
-.11525E+08
-.11421E+08
-.11328E+08
-.11287E+08
-.11373E+08
-.11439E+08
-.11376E+08
-.11484E+08
-.11518E+08
-.11185E+08
-.11217E+08
-.11137E+08
-.11178E+08
-.11206E+08
-.11104E+08
-.11137E+08
-.11079E+08
-.11168E+08
-.11127E+08
-.11186E+08
-.11103E+08
-.11510E+08
-.10810E+08
</weights>
</event>
<event>
      6  10001 -1.11453E+07  8.94427E-01 -1.00000E+00  5.71410E-01
      21    -1     0     0   502   501  0.000000000E+00  0.000000000E+00  5.365357343E-03  5.365357343E-03  0.000000000E+00  0.00000E+00  9.000E+00
      -2    -1     0     0     0   502  0.000000000E+00  0.000000000E+00 -2.488468726E+02  2.488468726E+02  0.000000000E+00  0.00000E+00  9.000E+00
      23     2     1     2     0     0 -5.865507356E-01  1.981576419E-02 -1.664088517E+02  1.664174933E+02  1.591132466E+00  0.00000E+00  9.000E+00
      11     1     3     3     0     0 -1.027544533E+00  4.018667815E-01 -1.167723332E+02  1.167775456E+02  5.110000000E-04  0.00000E+00  9.000E+00
     -11     1     3     3     0     0  4.409937970E-01 -3.820510173E-01 -4.963651848E+01  4.963994768E+01  5.110000000E-04  0.00000E+00  9.000E+00
      -2     1     1     2     0   501  5.865507356E-01 -1.981576419E-02 -8.243265551E+01  8.243474467E+01  0.000000000E+00  0.00000E+00  9.000E+00
#rwgt            1          14  -1521197.7902298484                3     9754440           0
<weights>
-.11144E+08
-.12868E+08
-.90017E+07
-.15640E+08
-.72126E+07
-.91691E+07
-.13908E+08
-.11013E+08
-.11267E+08
-.11363E+08
-.11313E+08
-.11141E+08
-.11260E+08
-.11322E+08
-.11328E+08
-.11029E+08
-.11197E+08
-.11035E+08
-.10893E+08
-.10872E+08
-.11056E+08
-.10949E+08
-.10964E+08
-.11105E+08
-.10968E+08
-.10978E+08
-.11190E+08
-.10973E+08
-.10966E+08
-.10990E+08
-.10976E+08
-.11274E+08
-.10951E+08
-.11311E+08
-.10981E+08
-.11212E+08
-.11059E+08
-.11413E+08
-.10863E+08
-.11129E+08
-.11140E+08
-.11311E+08
-.10964E+08
-.10932E+08
-.11345E+08
</weights>
</event>
<event>
      6  10001 -1.11453E+07  8.94427E-01 -1.00000E+00  4.34645E-01
       2    -1     0     0   501     0  0.000000000E+00  0.000000000E+00  4.317206436E+02  4.317206436E+02  0.000000000E+00  0.00000E+00  9.000E+00
      21    -1     0     0   502   501  0.000000000E+00  0.000000000E+00 -5.339534357E-03  5.339534357E-03  0.000000000E+00  0.00000E+00  9.000E+00
      23     2     1     2     0     0 -1.741490714E-01  3.091218184E-01  4.217408402E+02  4.217452110E+02  1.887001224E+00  0.00000E+00  9.000E+00
      11     1     3     3     0     0 -5.034002414E-01  7.462557294E-01  3.762822956E+02  3.762833723E+02  5.110000000E-04  0.00000E+00  9.000E+00
     -11     1     3     3     0     0  3.292511700E-01 -4.371339110E-01  4.545854460E+01  4.546183861E+01  5.110000000E-04  0.00000E+00  9.000E+00
       2     1     1     2   502     0  1.741490714E-01 -3.091218184E-01  9.974463813E+00  9.980772142E+00  0.000000000E+00  0.00000E+00  9.000E+00
#rwgt            1          24  -25338792.605827641                3     9758367           0
<weights>
-.11145E+08
-.11664E+08
-.10435E+08
-.14186E+08
-.83610E+07
-.91642E+07
-.13909E+08
-.11171E+08
-.11121E+08
-.10823E+08
-.10813E+08
-.10962E+08
-.11006E+08
-.10841E+08
-.10824E+08
-.11226E+08
-.11211E+08
-.11462E+08
-.11505E+08
-.11492E+08
-.11439E+08
-.11502E+08
-.11521E+08
-.11413E+08
-.11328E+08
-.11287E+08
-.11358E+08
-.11435E+08
-.11372E+08
-.11480E+08
-.11514E+08
-.11184E+08
-.11217E+08
-.11138E+08
-.11178E+08
-.11208E+08
-.11102E+08
-.11133E+08
-.11084E+08
-.11166E+08
-.11128E+08
-.11185E+08
-.11104E+08
-.11506E+08
-.10814E+08
</weights>
</event>
<event>
      6  10001 -1.11453E+07  8.94427E-01 -1.00000E+00  1.69391E-01
       4    -1     0     0   501     0  0.000000000E+00  0.000000000E+00  4.268173746E+01  4.268173746E+01  0.000000000E+00  0.00000E+00  9.000E+00
      21    -1     0     0   502   501  0.000000000E+00  0.000000000E+00 -1.312449638E-02  1.312449638E-02  0.000000000E+00  0.00000E+00  9.000E+00
      23     2     1     2     0     0  3.040307557E-01 -4.610159778E-02  3.847454680E+01  3.848953782E+01  1.029179541E+00  0.00000E+00  9.000E+00
      11     1     3     3     0     0  5.844695877E-01 -2.669024185E-01  1.719993879E+01  1.721193586E+01  5.110000000E-04  0.00000E+00  9.000E+00
     -11     1     3     3     0     0 -2.804388320E-01  2.208008208E-01  2.127460801E+01  2.127760196E+01  5.110000000E-04  0.00000E+00  9.000E+00
       4     1     1     2   502     0 -3.040307557E-01  4.610159778E-02  4.194066168E+00  4.205324135E+00  0.000000000E+00  0.00000E+00  9.000E+00
#rwgt            1          28  -2304347.1592988949                3     9759307           0
<weights>
-.11145E+08
-.12927E+08
-.91983E+07
-.15719E+08
-.73704E+07
-.91660E+07
-.13909E+08
-.11173E+08
-.11118E+08
-.10826E+08
-.10818E+08
-.10963E+08
-.11009E+08
-.10844E+08
-.10828E+08
-.11225E+08
-.11209E+08
-.11458E+08
-.11498E+08
-.11486E+08
-.11435E+08
-.11496E+08
-.11516E+08
-.11404E+08
-.11328E+08
-.11286E+08
-.11340E+08
-.11430E+08
-.11368E+08
-.11474E+08
-.11509E+08
-.11182E+08
-.11217E+08
-.11138E+08
-.11177E+08
-.11210E+08
-.11100E+08
-.11127E+08
-.11089E+08
-.11165E+08
-.11129E+08
-.11184E+08
-.11104E+08
-.11501E+08
-.10818E+08
</weights>
</event>
<event>
      7  10001  1.11453E+07  2.18331E+00 -1.00000E+00  3.38426E-01
      21    -1     0     0   511   501  0.000000000E+00  0.000000000E+00  9.427571381E+00  9.427571381E+00  0.000000000E+00  0.00000E+00  9.000E+00
       2    -1     0     0   501     0  0.000000000E+00  0.000000000E+00 -1.723861603E+02  1.723861603E+02  0.000000000E+00  0.00000E+00  9.000E+00
      23     2     1     2     0     0  3.422309131E-01 -1.644744421E-01 -1.282992806E+02  1.283050041E+02  1.150875912E+00  0.00000E+00  9.000E+00
      11     1     3     3     0     0  5.059100253E-01 -5.752995894E-01 -7.650799872E+01  7.651183426E+01  5.110000000E-04  0.00000E+00  9.000E+00
     -11     1     3     3     0     0 -1.636791123E-01  4.108251473E-01 -5.179128187E+01  5.179316988E+01  5.110000000E-04  0.00000E+00  9.000E+00
       2     1     1     2   502     0 -1.096867822E+00 -1.884269047E+00 -4.393017395E+01  4.398424459E+01  0.000000000E+00  0.00000E+00  9.000E+00
      21     1     1     2   511   502  7.546369087E-01  2.048743489E+00  9.270865601E+00  9.524482965E+00  3.769728732E-07  0.00000E+00  9.000E+00
#rwgt            1          17   6405917.0392729919                3     9763566           0
<weights>
0.11145E+08
0.13011E+08
0.91852E+07
0.13323E+08
0.89570E+07
0.10838E+08
0.11349E+08
0.11148E+08
0.11142E+08
0.11146E+08
0.11162E+08
0.11165E+08
0.11104E+08
0.11158E+08
0.11159E+08
0.11234E+08
0.10986E+08
0.11102E+08
0.11154E+08
0.11160E+08
0.11095E+08
0.11125E+08
0.11134E+08
0.11251E+08
0.11009E+08
0.11050E+08
0.11191E+08
0.11213E+08
0.10989E+08
0.11139E+08
0.11124E+08
0.11111E+08
0.11171E+08
0.11087E+08
0.11209E+08
0.11147E+08
0.11138E+08
0.11148E+08
0.11143E+08
0.11112E+08
0.11169E+08
0.11200E+08
0.11086E+08
0.11131E+08
0.11156E+08
</weights>
</event>
<event>
      7  10001  1.11453E+07  1.59537E+00 -1.00000E+00  4.01788E-01
      21    -1     0     0   502   501  0.000000000E+00  0.000000000E+00  4.817696058E+00  4.817696058E+00  0.000000000E+00  0.00000E+00  9.000E+00
       3    -1     0     0   501     0  0.000000000E+00  0.000000000E+00 -3.633705543E-01  3.633705543E-01  0.000000000E+00  0.00000E+00  9.000E+00
      23     2     1     2     0     0 -4.112148754E-01 -7.782335044E-01  3.032893898E+00  3.323868412E+00  1.036779033E+00  0.00000E+00  9.000E+00
      11     1     3     3     0     0  3.312830277E-01 -4.034775421E-01  1.327751098E+00  1.426697519E+00  5.110000000E-04  0.00000E+00  9.000E+00
     -11     1     3     3     0     0 -7.424979031E-01 -3.747559623E-01  1.705142800E+00  1.897170893E+00  5.110000000E-04  0.00000E+00  9.000E+00
       3     1     1     2   511     0  3.752109990E-02  7.238806363E-02  8.993347794E-01  9.030232058E-01  0.000000000E+00  0.00000E+00  9.000E+00
      21     1     1     2   502   511  3.736937755E-01  7.058454408E-01  5.220968262E-01  9.541749944E-01  7.598131170E-08  0.00000E+00  9.000E+00
#rwgt            1          18   94442.332742574145                3     9768435           0
<weights>
0.11145E+08
0.14406E+08
0.81908E+07
0.11759E+08
0.98760E+07
0.12844E+08
0.82697E+07
0.11166E+08
0.11119E+08
0.10726E+08
0.10695E+08
0.11025E+08
0.10822E+08
0.10729E+08
0.10706E+08
0.11185E+08
0.11246E+08
0.11167E+08
0.12690E+08
0.12423E+08
0.11193E+08
0.11619E+08
0.11720E+08
0.13499E+08
0.10611E+08
0.10271E+08
0.18898E+08
0.11216E+08
0.12059E+08
0.11613E+08
0.11709E+08
0.11286E+08
0.11163E+08
0.11145E+08
0.11187E+08
0.11212E+08
0.11099E+08
0.11325E+08
0.10885E+08
0.11224E+08
0.11075E+08
0.11233E+08
0.11053E+08
0.11639E+08
0.10698E+08
</weights>
</event>
<event>
      7  10001  1.11453E+07  1.17042E+00 -1.00000E+00  5.05231E-01
      21    -1     0     0   502   501  0.000000000E+00  0.000000000E+00  3.095757724E+00  3.095757724E+00  0.000000000E+00  0.00000E+00  9.000E+00
       4    -1     0     0   501     0  0.000000000E+00  0.000000000E+00 -6.680271557E-01  6.680271557E-01  0.000000000E+00  0.00000E+00  9.000E+00
      23     2     1     2     0     0 -4.457241537E-01 -2.744630802E-01  1.087042068E+00  1.991041133E+00  1.583851107E+00  0.00000E+00  9.000E+00
      11     1     3     3     0     0  4.485195937E-01  3.500915186E-01  4.690212843E-01  7.373704114E-01  5.110000000E-04  0.00000E+00  9.000E+00
     -11     1     3     3     0     0 -8.942437473E-01 -6.245545988E-01  6.180207841E-01  1.253670721E+00  5.110000000E-04  0.00000E+00  9.000E+00
       4     1     1     2   512     0  8.118780052E-02  4.342942478E-01  7.780207313E-02  4.486157768E-01  0.000000000E+00  0.00000E+00  9.000E+00
      21     1     1     2   502   512  3.645363531E-01 -1.598311676E-01  1.262886426E+00  1.324127970E+00  0.000000000E+00  0.00000E+00  9.000E+00
#rwgt            2         195   20248610.411634710                3     9778319           0
<weights>
0.11145E+08
0.11882E+08
0.10106E+08
0.14441E+08
0.80972E+07
0.91702E+07
0.13910E+08
0.11197E+08
0.11090E+08
0.10812E+08
0.10801E+08
0.10950E+08
0.11009E+08
0.10829E+08
0.10812E+08
0.11232E+08
0.11214E+08
0.11484E+08
0.11493E+08
0.11489E+08
0.11457E+08
0.11516E+08
0.11534E+08
0.11364E+08
0.11364E+08
0.11327E+08
0.11160E+08
0.11458E+08
0.11365E+08
0.11493E+08
0.11528E+08
0.11188E+08
0.11216E+08
0.11133E+08
0.11183E+08
0.11235E+08
0.11073E+08
0.11135E+08
0.11076E+08
0.11169E+08
0.11126E+08
0.11180E+08
0.11109E+08
0.11519E+08
0.10802E+08
</weights>
</event>
<event>
      6  10001 -1.11453E+07  8.94427E-01 -1.00000E+00  6.07639E-01
      21    -1     0     0   502   501  0.000000000E+00  0.000000000E+00  2.343036449E+00  2.343036449E+00  0.000000000E+00  0.00000E+00  9.000E+00
      -2    -1     0     0     0   502  0.000000000E+00  0.000000000E+00 -2.793145728E-01  2.793145728E-01  0.000000000E+00  0.00000E+00  9.000E+00
      23     2     1     2     0     0 -1.391281265E-01 -2.205744562E-01  1.855552750E+00  2.288668371E+00  1.314122208E+00  0.00000E+00  9.000E+00
      11     1     3     3     0     0  5.963190040E-02 -3.209626761E-01 -8.342492737E-02  3.369465575E-01  5.110000000E-04  0.00000E+00  9.000E+00
     -11     1     3     3     0     0 -1.987600269E-01  1.003882199E-01  1.938977678E+00  1.951721814E+00  5.110000000E-04  0.00000E+00  9.000E+00
      -2     1     1     2     0   501  1.391281265E-01  2.205744562E-01  2.081691260E-01  3.336826507E-01  0.000000000E+00  0.00000E+00  9.000E+00
#rwgt            1          14  -516230.84024428000                3     9778513           0
<weights>
-.11145E+08
-.91902E+07
-.11938E+08
-.18843E+08
-.53579E+07
-.43803E+07
-.21263E+08
-.11433E+08
-.10800E+08
-.10889E+08
-.10938E+08
-.10968E+08
-.11104E+08
-.10928E+08
-.10941E+08
-.11258E+08
-.11086E+08
-.11342E+08
-.11372E+08
-.11377E+08
-.11320E+08
-.11355E+08
-.11409E+08
-.11174E+08
-.11386E+08
-.11236E+08
-.11112E+08
-.11291E+08
-.11303E+08
-.11313E+08
-.11382E+08
-.11175E+08
-.11182E+08
-.11142E+08
-.11155E+08
-.11415E+08
-.10869E+08
-.10970E+08
-.11242E+08
-.11132E+08
-.11160E+08
-.11138E+08
-.11154E+08
-.11391E+08
-.10913E+08
</weights>
</event>
<event>
      6  10001 -1.11453E+07  8.94427E-01 -1.00000E+00  4.02001E-01
      21    -1     0     0   502   501  0.000000000E+00  0.000000000E+00  1.503546962E-02  1.503546962E-02  0.000000000E+00  0.00000E+00  9.000E+00
       2    -1     0     0   501     0  0.000000000E+00  0.000000000E+00 -3.472568645E+02  3.472568645E+02  0.000000000E+00  0.00000E+00  9.000E+00
      23     2     1     2     0     0 -5.938965244E-01 -2.186483122E-01 -3.343875075E+02  3.344020086E+02  3.049214250E+00  0.00000E+00  9.000E+00
      11     1     3     3     0     0  7.934219316E-01 -1.115280744E+00 -1.119254896E+02  1.119338581E+02  5.110000000E-04  0.00000E+00  9.000E+00
     -11     1     3     3     0     0 -1.387318456E+00  8.966324319E-01 -2.224620179E+02  2.224681506E+02  5.110000000E-04  0.00000E+00  9.000E+00
       2     1     1     2   502     0  5.938965244E-01  2.186483122E-01 -1.285432161E+01  1.286989138E+01  0.000000000E+00  0.00000E+00  9.000E+00
#rwgt            1          17  -25587309.879046958                3     9792837           0
<weights>
-.11145E+08
-.12182E+08
-.98776E+07
-.14805E+08
-.79144E+07
-.91702E+07
-.13910E+08
-.11128E+08
-.11162E+08
-.11168E+08
-.11158E+08
-.11028E+08
-.11282E+08
-.11161E+08
-.11159E+08
-.11330E+08
-.10868E+08
-.11386E+08
-.10780E+08
-.10733E+08
-.11412E+08
-.11105E+08
-.11163E+08
-.11100E+08
-.11145E+08
-.11250E+08
-.11074E+08
-.10857E+08
-.11436E+08
-.11081E+08
-.11170E+08
-.11024E+08
-.11262E+08
-.11399E+08
-.10825E+08
-.11116E+08
-.11170E+08
-.11160E+08
-.11133E+08
-.11218E+08
-.11078E+08
-.11145E+08
-.11146E+08
-.11127E+08
-.11164E+08
</weights>
</event>
<event>
      6  10001 -1.11453E+07  8.94427E-01 -1.00000E+00  5.43237E-01
      21    -1     0     0   502   501  0.000000000E+00  0.000000000E+00  6.283206056E+01  6.283206056E+01  0.000000000E+00  0.00000E+00  9.000E+00
       4    -1     0     0   501     0  0.000000000E+00  0.000000000E+00 -2.271804433E-02  2.271804433E-02  0.000000000E+00  0.00000E+00  9.000E+00
      23     2     1     2     0     0  3.978257125E-01 -1.743142202E-01  3.171102461E+01  3.175342772E+01  1.581909897E+00  0.00000E+00  9.000E+00
      11     1     3     3     0     0  3.839823201E-01 -3.208482856E-03  3.136316985E+01  3.136552050E+01  5.110000000E-04  0.00000E+00  9.000E+00
     -11     1     3     3     0     0  1.384339243E-02 -1.711057373E-01  3.478547596E-01  3.879072154E-01  5.110000000E-04  0.00000E+00  9.000E+00
       4     1     1     2   502     0 -3.978257125E-01  1.743142202E-01  3.109831790E+01  3.110135088E+01  0.000000000E+00  0.00000E+00  9.000E+00
#rwgt            1          19  -1605433.0835524753                3     9793962           0
<weights>
-.11145E+08
-.12648E+08
-.94111E+07
-.15387E+08
-.75411E+07
-.91611E+07
-.13909E+08
-.11168E+08
-.11124E+08
-.10809E+08
-.10792E+08
-.10956E+08
-.10995E+08
-.10824E+08
-.10804E+08
-.11228E+08
-.11221E+08
-.11483E+08
-.11527E+08
-.11514E+08
-.11458E+08
-.11526E+08
-.11542E+08
-.11436E+08
-.11332E+08
-.11294E+08
-.11373E+08
-.11457E+08
-.11389E+08
-.11506E+08
-.11538E+08
-.11191E+08
-.11217E+08
-.11136E+08
-.11182E+08
-.11205E+08
-.11106E+08
-.11158E+08
-.11058E+08
-.11173E+08
-.11122E+08
-.11188E+08
-.11100E+08
-.11527E+08
-.10795E+08
</weights>
</event>
<event>
      7  10001  1.11453E+07  2.45328E+00 -1.00000E+00  3.19838E-01
      21    -1     0     0   502   501  0.000000000E+00  0.000000000E+00  3.706130243E+01  3.706130243E+01  0.000000000E+00  0.00000E+00  9.000E+00
      -2    -1     0     0     0   502  0.000000000E+00  0.000000000E+00 -5.490236676E-01  5.490236676E-01  0.000000000E+00  0.00000E+00  9.000E+00
      23     2     1     2     0     0 -1.844203441E+00  7.124524236E-01  3.174568070E+00  4.091492819E+00  1.659444567E+00  0.00000E+00  9.000E+00
      11     1     3     3     0     0 -1.213424368E+00  1.255904471E+00  2.069167237E+00  2.707609287E+00  5.110000000E-04  0.00000E+00  9.000E+00
     -11     1     3     3     0     0 -6.307790723E-01 -5.434520475E-01  1.105400833E+00  1.383883532E+00  5.110000000E-04  0.00000E+00  9.000E+00
      -2     1     1     2     0   511  2.368862196E+00 -1.476286113E-01  1.723240654E+01  1.739508946E+01  0.000000000E+00  0.00000E+00  9.000E+00
      21     1     1     2   511   501 -5.246587550E-01 -5.648238123E-01  1.610530416E+01  1.612374382E+01  2.384185791E-07  0.00000E+00  9.000E+00
#rwgt            1          14   3960758.4015953918                3     9794765           0
<weights>
0.11141E+08
0.11714E+08
0.10565E+08
0.12556E+08
0.95677E+07
0.10334E+08
0.12209E+08
0.11022E+08
0.11281E+08
0.10822E+08
0.10793E+08
0.10970E+08
0.10973E+08
0.10833E+08
0.10806E+08
0.11185E+08
0.11270E+08
0.11487E+08
0.11474E+08
0.11461E+08
0.11466E+08
0.11516E+08
0.11517E+08
0.11416E+08
0.11301E+08
0.11345E+08
0.11151E+08
0.11474E+08
0.11325E+08
0.11501E+08
0.11515E+08
0.11157E+08
0.11239E+08
0.11138E+08
0.11173E+08
0.11062E+08
0.11251E+08
0.11153E+08
0.11055E+08
0.11164E+08
0.11119E+08
0.11205E+08
0.11073E+08
0.11509E+08
0.10804E+08
</weights>
</event>
<event>
      6  10001 -1.11453E+07  8.94427E-01 -1.00000E+00  1.93108E-01
       5    -1     0     0   501     0  0.000000000E+00  0.000000000E+00  3.079819478E+01  3.079819478E+01  0.000000000E+00  0.00000E+00  9.000E+00
      21    -1     0     0   502   501  0.000000000E+00  0.000000000E+00 -2.366935796E-02  2.366935796E-02  0.000000000E+00  0.00000E+00  9.000E+00
      23     2     1     2     0     0  1.357459583E-01  2.232223246E-01  2.932723148E+01  2.935117895E+01  1.156263046E+00  0.00000E+00  9.000E+00
      11     1     3     3     0     0 -2.289836664E-01 -3.777730592E-01  7.826257400E+00  7.838714892E+00  5.110000000E-04  0.00000E+00  9.000E+00
     -11     1     3     3     0     0  3.647296247E-01  6.009953839E-01  2.150097408E+01  2.151246405E+01  5.110000000E-04  0.00000E+00  9.000E+00
       5     1     1     2   502     0 -1.357459583E-01 -2.232223246E-01  1.447293950E+00  1.470685198E+00  0.000000000E+00  0.00000E+00  9.000E+00
#rwgt            1          30  -655955.98504124547                3     9822000           0
<weights>
-.11145E+08
-.14023E+08
-.81853E+07
-.17062E+08
-.65590E+07
-.91604E+07
-.13909E+08
-.11169E+08
-.11124E+08
-.10819E+08
-.10807E+08
-.10960E+08
-.11002E+08
-.10836E+08
-.10818E+08
-.11226E+08
-.11215E+08
-.11468E+08
-.11513E+08
-.11500E+08
-.11444E+08
-.11509E+08
-.11527E+08
-.11423E+08
-.11328E+08
-.11288E+08
-.11373E+08
-.11441E+08
-.11378E+08
-.11488E+08
-.11521E+08
-.11186E+08
-.11217E+08
-.11137E+08
-.11179E+08
-.11206E+08
-.11104E+08
-.11141E+08
-.11075E+08
-.11168E+08
-.11126E+08
-.11186E+08
-.11102E+08
-.11512E+08
-.10808E+08
</weights>
</event>
<event>
      6  10001  1.11453E+07  8.94427E-01 -1.00000E+00  5.96217E-01
      -1    -1     0     0     0   502  0.000000000E+00  0.000000000E+00  5.063930518E-02  5.063930518E-02  0.000000000E+00  0.00000E+00  9.000E+00
       1    -1     0     0   501     0  0.000000000E+00  0.000000000E+00 -6.554172961E+01  6.554172961E+01  0.000000000E+00  0.00000E+00  9.000E+00
      23     2     1     2     0     0 -1.828738468E-01 -1.823208318E-01 -2.067662826E+01  2.077716287E+01  2.025057370E+00  0.00000E+00  9.000E+00
      11     1     3     3     0     0  2.174268973E-01 -4.600932801E-02 -1.982576141E+01  1.982700701E+01  5.110000000E-04  0.00000E+00  9.000E+00
     -11     1     3     3     0     0 -4.003007441E-01 -1.363115038E-01 -8.508668438E-01  9.501558602E-01  5.110000000E-04  0.00000E+00  9.000E+00
      21     1     1     2   501   502  1.828738468E-01  1.823208318E-01 -4.481446205E+01  4.481520604E+01  4.768371582E-07  0.00000E+00  9.000E+00
#rwgt            1          10   142043.39730821861                3     9824096           0
<weights>
0.11145E+08
0.12665E+08
0.97012E+07
0.11183E+08
0.10503E+08
0.11998E+08
0.95696E+07
0.11239E+08
0.11051E+08
0.11025E+08
0.11028E+08
0.10904E+08
0.11213E+08
0.11050E+08
0.11061E+08
0.10817E+08
0.11458E+08
0.11212E+08
0.11120E+08
0.11064E+08
0.11215E+08
0.11225E+08
0.11232E+08
0.11183E+08
0.11209E+08
0.11331E+08
0.11017E+08
0.11040E+08
0.11200E+08
0.11168E+08
0.11233E+08
0.11097E+08
0.11215E+08
0.11167E+08
0.11024E+08
0.11004E+08
0.11277E+08
0.10934E+08
0.11367E+08
0.11129E+08
0.11146E+08
0.11266E+08
0.11016E+08
0.11248E+08
0.11041E+08
</weights>
</event>
<event>
      7  10001  1.11453E+07  1.56492E+00 -1.00000E+00  4.06489E-01
      21    -1     0     0   502   511  0.000000000E+00  0.000000000E+00  5.827437771E+01  5.827437771E+01  0.000000000E+00  0.00000E+00  9.000E+00
       4    -1     0     0   501     0  0.000000000E+00  0.000000000E+00 -6.115806698E+00  6.115806698E+00  0.000000000E+00  0.00000E+00  9.000E+00
      23     2     1     2     0     0 -6.930267735E-01 -4.172365528E-02 -4.756644153E+00  5.090131834E+00  1.673843338E+00  0.00000E+00  9.000E+00
      11     1     3     3     0     0 -7.271596588E-03 -7.938576450E-01 -2.031116754E+00  2.180756375E+00  5.110000000E-04  0.00000E+00  9.000E+00
     -11     1     3     3     0     0 -6.857551769E-01  7.521339897E-01 -2.725527399E+00  2.909375460E+00  5.110000000E-04  0.00000E+00  9.000E+00
       4     1     1     2   502     0  1.364938663E+00 -1.371604315E+00 -3.896069072E-01  1.973866635E+00  0.000000000E+00  0.00000E+00  9.000E+00
      21     1     1     2   501   511 -6.719118894E-01  1.413327971E+00  5.730482208E+01  5.732618594E+01  9.536743164E-07  0.00000E+00  9.000E+00
#rwgt            1          19   1020286.2654905302                3     9827775           0
<weights>
0.11145E+08
0.14269E+08
0.81129E+07
0.13151E+08
0.89487E+07
0.11869E+08
0.97666E+07
0.11231E+08
0.11054E+08
0.10683E+08
0.10664E+08
0.10875E+08
0.10965E+08
0.10693E+08
0.10676E+08
0.11243E+08
0.11297E+08
0.11627E+08
0.11645E+08
0.11645E+08
0.11589E+08
0.11667E+08
0.11709E+08
0.11400E+08
0.11508E+08
0.11515E+08
0.11004E+08
0.11631E+08
0.11414E+08
0.11639E+08
0.11683E+08
0.11207E+08
0.11242E+08
0.11122E+08
0.11203E+08
0.11306E+08
0.11008E+08
0.11126E+08
0.10999E+08
0.11198E+08
0.11102E+08
0.11176E+08
0.11114E+08
0.11671E+08
0.10665E+08
</weights>
</event>
<event>
      6  10001  1.11453E+07  8.94427E-01 -1.00000E+00  6.07402E-01
      -4    -1     0     0     0   502  0.000000000E+00  0.000000000E+00  8.119225582E-01  8.119225582E-01  0.000000000E+00  0.00000E+00  9.000E+00
       4    -1     0     0   501     0  0.000000000E+00  0.000000000E+00 -3.248753351E+00  3.248753351E+00  0.000000000E+00  0.00000E+00  9.000E+00
      23     2     1     2     0     0  5.514633318E-01 -1.434848329E-01 -2.983292447E+00  3.271169707E+00  1.214832385E+00  0.00000E+00  9.000E+00
      11     1     3     3     0     0 -2.982525447E-01 -2.366948241E-01 -4.096387480E-01  5.592702256E-01  5.110000000E-04  0.00000E+00  9.000E+00
     -11     1     3     3     0     0  8.497158765E-01  9.320999123E-02 -2.573653699E+00  2.711899482E+00  5.110000000E-04  0.00000E+00  9.000E+00
      21     1     1     2   501   502 -5.514633318E-01  1.434848329E-01  5.464616544E-01  7.895062022E-01  4.012260442E-08  0.00000E+00  9.000E+00
#rwgt            1           4   218055.94197886946                3     9837401           0
<weights>
0.11145E+08
0.13220E+08
0.92129E+07
0.11207E+08
0.99898E+07
0.12178E+08
0.92929E+07
0.11215E+08
0.11070E+08
0.10696E+08
0.10656E+08
0.10886E+08
0.10955E+08
0.10701E+08
0.10672E+08
0.11249E+08
0.11293E+08
0.11637E+08
0.11638E+08
0.11638E+08
0.11598E+08
0.11682E+08
0.11699E+08
0.11433E+08
0.11473E+08
0.11479E+08
0.11047E+08
0.11635E+08
0.11439E+08
0.11663E+08
0.11694E+08
0.11225E+08
0.11229E+08
0.11116E+08
0.11213E+08
0.11277E+08
0.11035E+08
0.11213E+08
0.10939E+08
0.11208E+08
0.11094E+08
0.11184E+08
0.11106E+08
0.11672E+08
0.10666E+08
</weights>
</event>
<event>
      6  10001 -1.11453E+07  8.94427E-01 -1.00000E+00  5.14933E-01
      21    -1     0     0   502   501  0.000000000E+00  0.000000000E+00  4.112714649E+01  4.112714649E+01  0.000000000E+00  0.00000E+00  9.000E+00
       2    -1     0     0   501     0  0.000000000E+00  0.000000000E+00 -2.388010965E-02  2.388010965E-02  0.000000000E+00  0.00000E+00  9.000E+00
      23     2     1     2     0     0 -1.556433750E-02 -3.274015444E-01  1.424977191E+01  1.429553183E+01  1.094895800E+00  0.00000E+00  9.000E+00
      11     1     3     3     0     0 -5.683959670E-02  7.839493924E-02  1.243945785E+01  1.243983474E+01  5.110000000E-04  0.00000E+00  9.000E+00
     -11     1     3     3     0     0  4.127525919E-02 -4.057964836E-01  1.810314055E+00  1.855697085E+00  5.110000000E-04  0.00000E+00  9.000E+00
       2     1     1     2   502     0  1.556433750E-02  3.274015444E-01  2.685349448E+01  2.685549478E+01  0.000000000E+00  0.00000E+00  9.000E+00
#rwgt            1          17  -3450688.0588833350                3     9838314           0
<weights>
-.11144E+08
-.12713E+08
-.93772E+07
-.15469E+08
-.75141E+07
-.91584E+07
-.13907E+08
-.11106E+08
-.11208E+08
-.10812E+08
-.10790E+08
-.10961E+08
-.10987E+08
-.10825E+08
-.10802E+08
-.11216E+08
-.11235E+08
-.11482E+08
-.11522E+08
-.11507E+08
-.11458E+08
-.11525E+08
-.11537E+08
-.11451E+08
-.11314E+08
-.11298E+08
-.11375E+08
-.11461E+08
-.11378E+08
-.11507E+08
-.11534E+08
-.11182E+08
-.11223E+08
-.11134E+08
-.11182E+08
-.11163E+08
-.11151E+08
-.11160E+08
-.11055E+08
-.11170E+08
-.11121E+08
-.11192E+08
-.11093E+08
-.11523E+08
-.10796E+08
</weights>
</event>
<event>
      6  10001 -1.11453E+07  8.94427E-01 -1.00000E+00  3.97067E-01
      21    -1     0     0   502   501  0.000000000E+00  0.000000000E+00  8.716859844E+01  8.716859844E+01  0.000000000E+00  0.00000E+00  9.000E+00
      -2    -1     0     0     0   502  0.000000000E+00  0.000000000E+00 -1.576670673E-02  1.576670673E-02  0.000000000E+00  0.00000E+00  9.000E+00
      23     2     1     2     0     0 -5.220647988E-01  4.783478421E-01  4.013991553E+01  4.016611701E+01  1.266004838E+00  0.00000E+00  9.000E+00
      11     1     3     3     0     0  4.851273350E-02 -1.727948974E-01  9.597434643E-01  9.763807353E-01  5.110000000E-04  0.00000E+00  9.000E+00
     -11     1     3     3     0     0 -5.705775323E-01  6.511427395E-01  3.918017207E+01  3.918973627E+01  5.110000000E-04  0.00000E+00  9.000E+00
      -2     1     1     2     0   501  5.220647988E-01 -4.783478421E-01  4.701291621E+01  4.701824814E+01  0.000000000E+00  0.00000E+00  9.000E+00
#rwgt            1          14  -492719.12197384739                3     9839038           0
<weights>
-.11145E+08
-.12570E+08
-.94518E+07
-.15290E+08
-.75737E+07
-.91623E+07
-.13909E+08
-.11139E+08
-.11164E+08
-.10817E+08
-.10800E+08
-.10961E+08
-.10996E+08
-.10832E+08
-.10812E+08
-.11222E+08
-.11225E+08
-.11476E+08
-.11515E+08
-.11502E+08
-.11452E+08
-.11517E+08
-.11532E+08
-.11432E+08
-.11323E+08
-.11295E+08
-.11355E+08
-.11451E+08
-.11377E+08
-.11497E+08
-.11527E+08
-.11184E+08
-.11221E+08
-.11137E+08
-.11181E+08
-.11186E+08
-.11127E+08
-.11150E+08
-.11067E+08
-.11170E+08
-.11124E+08
-.11190E+08
-.11099E+08
-.11518E+08
-.10804E+08
</weights>
</event>
<event>
      6  10001  1.11453E+07  8.94427E-01 -1.00000E+00  5.87585E-01
       5    -1     0     0   501     0  0.000000000E+00  0.000000000E+00  3.648537562E-01  3.648537562E-01  0.000000000E+00  0.00000E+00  9.000E+00
      21    -1     0     0   502   501  0.000000000E+00  0.000000000E+00 -1.242694139E+01  1.242694139E+01  0.000000000E+00  0.00000E+00  9.000E+00
      23     2     1     2     0     0 -4.577387464E-01  1.205299234E+00 -1.069095526E+01  1.090970190E+01  1.750085768E+00  0.00000E+00  9.000E+00
      11     1     3     3     0     0 -2.784505379E-01  4.986105421E-01 -7.531526644E-01  9.451911827E-01  5.110000000E-04  0.00000E+00  9.000E+00
     -11     1     3     3     0     0 -1.792882085E-01  7.066886917E-01 -9.937802592E+00  9.964510715E+00  5.110000000E-04  0.00000E+00  9.000E+00
       5     1     1     2   502     0  4.577387464E-01 -1.205299234E+00 -1.371132380E+00  1.882093251E+00  0.000000000E+00  0.00000E+00  9.000E+00
#rwgt            1          30   43824.751019879230                3     9839555           0
<weights>
0.11145E+08
0.14347E+08
0.79519E+07
0.12879E+08
0.88661E+07
0.12044E+08
0.94989E+07
0.11258E+08
0.11027E+08
0.10627E+08
0.10651E+08
0.10865E+08
0.10931E+08
0.10660E+08
0.10656E+08
0.11264E+08
0.11261E+08
0.11634E+08
0.11682E+08
0.11681E+08
0.11594E+08
0.11674E+08
0.11749E+08
0.11388E+08
0.11547E+08
0.11475E+08
0.11043E+08
0.11608E+08
0.11435E+08
0.11625E+08
0.11697E+08
0.11186E+08
0.11267E+08
0.11143E+08
0.11180E+08
0.11314E+08
0.11002E+08
0.10989E+08
0.11112E+08
0.11186E+08
0.11111E+08
0.11192E+08
0.11096E+08
0.11700E+08
0.10634E+08
</weights>
</event>
<event>
      6  10001 -1.11453E+07  8.94427E-01 -1.00000E+00  6.06396E-01
      -5    -1     0     0     0   502  0.000000000E+00  0.000000000E+00  1.594010614E+00  1.594010614E+00  0.000000000E+00  0.00000E+00  9.000E+00
      21    -1     0     0   502   501  0.000000000E+00  0.000000000E+00 -6.060423460E-01  6.060423460E-01  0.000000000E+00  0.00000E+00  9.000E+00
      23     2     1     2     0     0  4.359204904E-01 -4.815689022E-02  5.372703048E-01  1.571185395E+00  1.409829211E+00  0.00000E+00  9.000E+00
      11     1     3     3     0     0  3.354237433E-01  4.464676142E-01 -2.690942588E-01  6.198825690E-01  5.110000000E-04  0.00000E+00  9.000E+00
     -11     1     3     3     0     0  1.004967470E-01 -4.946245044E-01  8.063645635E-01  9.513028261E-01  5.110000000E-04  0.00000E+00  9.000E+00
      -5     1     1     2     0   501 -4.359204904E-01  4.815689022E-02  4.506979633E-01  6.288675648E-01  0.000000000E+00  0.00000E+00  9.000E+00
#rwgt            1           1  -126295.96289591929                3     9841846           0
<weights>
-.11145E+08
-.96036E+07
-.11743E+08
-.16367E+08
-.71984E+07
-.64067E+07
-.18152E+08
-.11207E+08
-.11082E+08
-.11014E+08
-.11068E+08
-.11039E+08
-.11146E+08
-.11059E+08
-.11071E+08
-.11197E+08
-.11083E+08
-.11215E+08
-.11200E+08
-.11197E+08
-.11210E+08
-.11205E+08
-.11236E+08
-.11122E+08
-.11253E+08
-.11185E+08
-.11063E+08
-.11171E+08
-.11167E+08
-.11166E+08
-.11215E+08
-.11114E+08
-.11196E+08
-.11153E+08
-.11136E+08
-.11236E+08
-.11061E+08
-.10905E+08
-.11348E+08
-.11091E+08
-.11194E+08
-.11148E+08
-.11143E+08
-.11241E+08
-.11047E+08
</weights>
</event>
<event>
      7  10001  1.11453E+07  1.55878E+00 -1.00000E+00  4.07462E-01
       1    -1     0     0   502     0  0.000000000E+00  0.000000000E+00  7.875020981E-01  7.875020981E-01  0.000000000E+00  0.00000E+00  9.000E+00
       4    -1     0     0   501     0  0.000000000E+00  0.000000000E+00 -3.250262884E+01  3.250262884E+01  0.000000000E+00  0.00000E+00  9.000E+00
      23     2     1     2     0     0 -1.531303963E+00 -7.152631454E-03 -2.921915620E+01  2.930224126E+01  1.586603410E+00  0.00000E+00  9.000E+00
      11     1     3     3     0     0 -2.380406101E-01  5.667971845E-01 -4.393902108E+00  4.436699041E+00  5.110000000E-04  0.00000E+00  9.000E+00
     -11     1     3     3     0     0 -1.293263353E+00 -5.739498160E-01 -2.482525410E+01  2.486554222E+01  5.110000000E-04  0.00000E+00  9.000E+00
       4     1     1     2   502     0  5.212418872E-01  1.194411593E+00 -1.931554137E+00  2.330067283E+00  0.000000000E+00  0.00000E+00  9.000E+00
       1     1     1     2   501     0  1.010062076E+00 -1.187258962E+00 -5.644164043E-01  1.657822402E+00  0.000000000E+00  0.00000E+00  9.000E+00
#rwgt            1          19   1524283.6906495227                3     9843350           0
<weights>
0.11145E+08
0.10215E+08
0.13248E+08
0.95966E+07
0.12307E+08
0.11008E+08
0.11088E+08
0.11275E+08
0.11016E+08
0.10765E+08
0.10867E+08
0.10906E+08
0.11067E+08
0.10835E+08
0.10863E+08
0.11209E+08
0.11181E+08
0.11408E+08
0.11459E+08
0.11453E+08
0.11392E+08
0.11420E+08
0.11505E+08
0.11215E+08
0.11465E+08
0.11412E+08
0.11021E+08
0.11393E+08
0.11243E+08
0.11347E+08
0.11439E+08
0.11100E+08
0.11281E+08
0.11173E+08
0.11126E+08
0.11355E+08
0.10960E+08
0.10741E+08
0.11483E+08
0.11108E+08
0.11180E+08
0.11145E+08
0.11146E+08
0.11484E+08
0.10820E+08
</weights>
</event>
<event>
      6  10001 -1.11453E+07  8.94427E-01 -1.00000E+00  4.49676E-01
       2    -1     0     0   501     0  0.000000000E+00  0.000000000E+00  4.839407269E+02  4.839407269E+02  0.000000000E+00  0.00000E+00  9.000E+00
      21    -1     0     0   502   501  0.000000000E+00  0.000000000E+00 -3.233508750E-03  3.233508750E-03  0.000000000E+00  0.00000E+00  9.000E+00
      23     2     1     2     0     0 -5.181625699E-01  2.114128636E-01  4.493143198E+02  4.493162643E+02  1.197582899E+00  0.00000E+00  9.000E+00
      11     1     3     3     0     0  3.445659401E-03  3.924186444E-01  4.924848978E+01  4.925005330E+01  5.110000000E-04  0.00000E+00  9.000E+00
     -11     1     3     3     0     0 -5.216082293E-01 -1.810057807E-01  4.000658301E+02  4.000662110E+02  5.110000000E-04  0.00000E+00  9.000E+00
       2     1     1     2   502     0  5.181625699E-01 -2.114128636E-01  3.462317356E+01  3.462769608E+01  0.000000000E+00  0.00000E+00  9.000E+00
#rwgt            1          24  -18244090.529696714                3     9853248           0
<weights>
-.11145E+08
-.11379E+08
-.10744E+08
-.13834E+08
-.86090E+07
-.91681E+07
-.13910E+08
-.11173E+08
-.11119E+08
-.10826E+08
-.10818E+08
-.10963E+08
-.11008E+08
-.10844E+08
-.10828E+08
-.11225E+08
-.11209E+08
-.11458E+08
-.11499E+08
-.11487E+08
-.11435E+08
-.11496E+08
-.11516E+08
-.11406E+08
-.11328E+08
-.11285E+08
-.11343E+08
-.11430E+08
-.11368E+08
-.11474E+08
-.11509E+08
-.11182E+08
-.11217E+08
-.11138E+08
-.11177E+08
-.11209E+08
-.11100E+08
-.11127E+08
-.11089E+08
-.11165E+08
-.11129E+08
-.11185E+08
-.11104E+08
-.11501E+08
-.10818E+08
</weights>
</event>
<event>
      6  10001 -1.11453E+07  8.94427E-01 -1.00000E+00  5.88392E-01
      21    -1     0     0   502   501  0.000000000E+00  0.000000000E+00  1.833620877E-02  1.833620877E-02  0.000000000E+00  0.00000E+00  9.000E+00
       4    -1     0     0   501     0  0.000000000E+00  0.000000000E+00 -6.408687704E+01  6.408687704E+01  0.000000000E+00  0.00000E+00  9.000E+00
      23     2     1     2     0     0  2.707649261E-01  4.442758251E-01 -5.158322850E+01  5.160906509E+01  1.547721848E+00  0.00000E+00  9.000E+00
      11     1     3     3     0     0  3.626760373E-01  1.628305737E-01 -4.978789998E+01  4.978948716E+01  5.110000000E-04  0.00000E+00  9.000E+00
     -11     1     3     3     0     0 -9.191111123E-02  2.814452514E-01 -1.795328522E+00  1.819577930E+00  5.110000000E-04  0.00000E+00  9.000E+00
       4     1     1     2   502     0 -2.707649261E-01 -4.442758251E-01 -1.248531233E+01  1.249614815E+01  0.000000000E+00  0.00000E+00  9.000E+00
#rwgt            1          19  -1766730.8476948196                3     9853925           0
<weights>
-.11145E+08
-.12798E+08
-.93281E+07
-.15554E+08
-.74742E+07
-.91702E+07
-.13910E+08
-.11212E+08
-.11079E+08
-.11030E+08
-.11108E+08
-.10994E+08
-.11236E+08
-.11113E+08
-.11120E+08
-.11169E+08
-.11072E+08
-.11160E+08
-.11121E+08
-.11115E+08
-.11165E+08
-.11149E+08
-.11136E+08
-.11123E+08
-.11185E+08
-.11180E+08
-.11111E+08
-.11149E+08
-.11088E+08
-.11095E+08
-.11148E+08
-.11086E+08
-.11209E+08
-.11167E+08
-.11118E+08
-.11282E+08
-.11021E+08
-.10796E+08
-.11551E+08
-.11033E+08
-.11250E+08
-.11103E+08
-.11190E+08
-.11195E+08
-.11079E+08
</weights>
</event>
<event>
      7  10001  1.11453E+07  4.49246E+00 -1.00000E+00  2.49468E-01
      21    -1     0     0   502   501  0.000000000E+00  0.000000000E+00  8.478621039E+00  8.478621039E+00  0.000000000E+00  0.00000E+00  9.000E+00
       2    -1     0     0   501     0  0.000000000E+00  0.000000000E+00 -7.835800072E-01  7.835800072E-01  0.000000000E+00  0.00000E+00  9.000E+00
      23     2     1     2     0     0  3.002741118E-01 -2.474345495E-01  2.207896341E-01  1.514701402E+00  1.447129530E+00  0.00000E+00  9.000E+00
      11     1     3     3     0     0  4.427537448E-01  5.281583429E-01 -2.218256935E-02  6.895465475E-01  5.110000000E-04  0.00000E+00  9.000E+00
     -11     1     3     3     0     0 -1.424796330E-01 -7.755928924E-01  2.429722034E-01  8.251548541E-01  5.110000000E-04  0.00000E+00  9.000E+00
       2     1     1     2   511     0  2.996867175E-01 -1.913948310E-02  6.250463781E-02  3.067332362E-01  0.000000000E+00  0.00000E+00  9.000E+00
      21     1     1     2   502   511 -5.999608293E-01  2.665740326E-01  7.411746760E+00  7.440766409E+00  1.192092896E-07  0.00000E+00  9.000E+00
#rwgt            2         189   1184806.3702769128                3     9854768           0
<weights>
0.11145E+08
0.11342E+08
0.10706E+08
0.13785E+08
0.85783E+07
0.91702E+07
0.13910E+08
0.11083E+08
0.11218E+08
0.10841E+08
0.10824E+08
0.10981E+08
0.10994E+08
0.10857E+08
0.10836E+08
0.11188E+08
0.11260E+08
0.11455E+08
0.11467E+08
0.11458E+08
0.11434E+08
0.11490E+08
0.11497E+08
0.11375E+08
0.11319E+08
0.11331E+08
0.11139E+08
0.11458E+08
0.11306E+08
0.11472E+08
0.11490E+08
0.11165E+08
0.11231E+08
0.11135E+08
0.11184E+08
0.11109E+08
0.11207E+08
0.11128E+08
0.11088E+08
0.11159E+08
0.11132E+08
0.11201E+08
0.11087E+08
0.11488E+08
0.10830E+08
</weights>
</event>
<event>
      7  10001 -1.11453E+07  1.57005E+00 -1.00000E+00  4.05682E-01
       2    -1     0     0   501     0  0.000000000E+00  0.000000000E+00  5.258816385E+01  5.258816385E+01  0.000000000E+00  0.00000E+00  9.000E+00
      21    -1     0     0   512   501  0.000000000E+00  0.000000000E+00 -9.063969960E-01  9.063969960E-01  0.000000000E+00  0.00000E+00  9.000E+00
      23     2     1     2     0     0 -1.232765509E+00  5.339236273E-01  2.294120990E+01  2.301743550E+01  1.303242155E+00  0.00000E+00  9.000E+00
      11     1     3     3     0     0 -4.714058386E-01  9.001105549E-01  1.128665051E+01  1.133229467E+01  5.110000000E-04  0.00000E+00  9.000E+00
     -11     1     3     3     0     0 -7.613596703E-01 -3.661869277E-01  1.165455939E+01  1.168514083E+01  5.110000000E-04  0.00000E+00  9.000E+00
       2     1     1     2   502     0 -3.271324127E-01 -3.556769140E-01  2.889541720E+01  2.889945773E+01  0.000000000E+00  0.00000E+00  9.000E+00
      21     1     1     2   512   502  1.559897922E+00 -1.782467132E-01 -1.548602474E-01  1.577667618E+00  2.587669341E-08  0.00000E+00  9.000E+00
#rwgt            1          24  -159422.62136048145                3     9857603           0
<weights>
-.11145E+08
-.67147E+07
-.15269E+08
-.17906E+08
-.64430E+07
-.28530E+07
-.23607E+08
-.11348E+08
-.10920E+08
-.11145E+08
-.11318E+08
-.11085E+08
-.11285E+08
-.11233E+08
-.11302E+08
-.11183E+08
-.10933E+08
-.10987E+08
-.10883E+08
-.10912E+08
-.10995E+08
-.10906E+08
-.11003E+08
-.10645E+08
-.11311E+08
-.11157E+08
-.10196E+08
-.10913E+08
-.10930E+08
-.10826E+08
-.10923E+08
-.11017E+08
-.11205E+08
-.11184E+08
-.11072E+08
-.11358E+08
-.10925E+08
-.10501E+08
-.11761E+08
-.11006E+08
-.11268E+08
-.11101E+08
-.11193E+08
-.11004E+08
-.11251E+08
</weights>
</event>
<event>
      6  10001 -1.11453E+07  8.94427E-01 -1.00000E+00  2.26044E-01
      21    -1     0     0   502   501  0.000000000E+00  0.000000000E+00  2.267958937E-02  2.267958937E-02  0.000000000E+00  0.00000E+00  9.000E+00
       5    -1     0     0   501     0  0.000000000E+00  0.000000000E+00 -2.189024068E+01  2.189024068E+01  0.000000000E+00  0.00000E+00  9.000E+00
      23     2     1     2     0     0  1.388743169E-01 -2.218785774E-01 -1.843064492E+01  1.846605083E+01  1.112584761E+00  0.00000E+00  9.000E+00
      11     1     3     3     0     0  3.294296243E-01  2.200469040E-02 -1.658171210E+00  1.690721771E+00  5.110000000E-04  0.00000E+00  9.000E+00
     -11     1     3     3     0     0 -1.905553075E-01 -2.438832678E-01 -1.677247371E+01  1.677532906E+01  5.110000000E-04  0.00000E+00  9.000E+00
       5     1     1     2   502     0 -1.388743169E-01  2.218785774E-01 -3.436916163E+00  3.446869434E+00  0.000000000E+00  0.00000E+00  9.000E+00
#rwgt            1          20  -2097791.8920196020                3     9889977           0
<weights>
-.11145E+08
-.14006E+08
-.82548E+07
-.17023E+08
-.66142E+07
-.91702E+07
-.13910E+08
-.11223E+08
-.11067E+08
-.10927E+08
-.10987E+08
-.10985E+08
-.11125E+08
-.10977E+08
-.10991E+08
-.11194E+08
-.11137E+08
-.11291E+08
-.11300E+08
-.11296E+08
-.11283E+08
-.11293E+08
-.11334E+08
-.11176E+08
-.11323E+08
-.11288E+08
-.11062E+08
-.11272E+08
-.11191E+08
-.11246E+08
-.11303E+08
-.11115E+08
-.11224E+08
-.11156E+08
-.11138E+08
-.11281E+08
-.11024E+08
-.10880E+08
-.11377E+08
-.11099E+08
-.11188E+08
-.11141E+08
-.11151E+08
-.11334E+08
-.10961E+08
</weights>
</event>
<event>
      7  10001  1.11453E+07  8.94427E-01 -1.00000E+00  6.07649E-01
       3    -1     0     0   502     0  0.000000000E+00  0.000000000E+00  1.170120739E+01  1.170120739E+01  0.000000000E+00  0.00000E+00  9.000E+00
       1    -1     0     0   501     0  0.000000000E+00  0.000000000E+00 -2.203146176E-01  2.203146176E-01  0.000000000E+00  0.00000E+00  9.000E+00
      23     2     1     2     0     0 -4.415890713E-01 -1.586054480E-01  7.334032774E+00  7.427775512E+00  1.078728757E+00  0.00000E+00  9.000E+00
      11     1     3     3     0     0 -3.522590733E-01 -5.991153169E-01  3.571814740E+00  3.638802882E+00  5.110000000E-04  0.00000E+00  9.000E+00
     -11     1     3     3     0     0 -8.932999796E-02  4.405098689E-01  3.762218034E+00  3.788972630E+00  5.110000000E-04  0.00000E+00  9.000E+00
       1     1     1     2   502     0  2.434568774E-01  7.692724061E-02 -7.526668454E-02  2.661843821E-01  0.000000000E+00  0.00000E+00  9.000E+00
       3     1     1     2   501     0  1.981321939E-01  8.167820740E-02  4.222126684E+00  4.227562114E+00  0.000000000E+00  0.00000E+00  9.000E+00
#rwgt            2         281   140194.99044686742                3     9892653           0
<weights>
0.11145E+08
0.11782E+08
0.10283E+08
0.14319E+08
0.82394E+07
0.91702E+07
0.13910E+08
0.11061E+08
0.11254E+08
0.10828E+08
0.10804E+08
0.10964E+08
0.10998E+08
0.10841E+08
0.10817E+08
0.11230E+08
0.11220E+08
0.11501E+08
0.11461E+08
0.11445E+08
0.11482E+08
0.11510E+08
0.11522E+08
0.11408E+08
0.11320E+08
0.11333E+08
0.11212E+08
0.11444E+08
0.11367E+08
0.11491E+08
0.11518E+08
0.11173E+08
0.11230E+08
0.11165E+08
0.11154E+08
0.11120E+08
0.11199E+08
0.11152E+08
0.11067E+08
0.11164E+08
0.11129E+08
0.11200E+08
0.11088E+08
0.11509E+08
0.10812E+08
</weights>
</event>
<event>
      6  10001 -1.11453E+07  8.94427E-01 -1.00000E+00  3.95167E-01
      21    -1     0     0   502   501  0.000000000E+00  0.000000000E+00  2.504080354E-02  2.504080354E-02  0.000000000E+00  0.00000E+00  9.000E+00
       2    -1     0     0   501     0  0.000000000E+00  0.000000000E+00 -1.572149694E+02  1.572149694E+02  0.000000000E+00  0.00000E+00  9.000E+00
      23     2     1     2     0     0 -2.712370062E-01  8.988415908E-02 -1.556125307E+02  1.556369404E+02  2.741506366E+00  0.00000E+00  9.000E+00
      11     1     3     3     0     0 -8.690598549E-01 -6.347044326E-01 -1.336466721E+02  1.336510047E+02  5.110000000E-04  0.00000E+00  9.000E+00
     -11     1     3     3     0     0  5.978228488E-01  7.245885917E-01 -2.196585866E+01  2.198593568E+01  5.110000000E-04  0.00000E+00  9.000E+00
       2     1     1     2   502     0  2.712370062E-01 -8.988415908E-02 -1.577397903E+00  1.603069811E+00  0.000000000E+00  0.00000E+00  9.000E+00
#rwgt            1          17  -809332892.70340991                3     9893379           0
<weights>
-.11145E+08
-.12108E+08
-.10019E+08
-.14715E+08
-.80277E+07
-.91702E+07
-.13910E+08
-.11135E+08
-.11155E+08
-.11170E+08
-.11172E+08
-.11128E+08
-.11171E+08
-.11174E+08
-.11173E+08
-.11264E+08
-.10943E+08
-.11171E+08
-.11031E+08
-.11022E+08
-.11174E+08
-.11105E+08
-.11125E+08
-.11204E+08
-.11032E+08
-.11095E+08
-.11163E+08
-.11100E+08
-.11111E+08
-.11111E+08
-.11123E+08
-.11087E+08
-.11192E+08
-.11171E+08
-.11104E+08
-.11140E+08
-.11145E+08
-.11164E+08
-.11129E+08
-.11137E+08
-.11148E+08
-.11176E+08
-.11112E+08
-.11114E+08
-.11173E+08
</weights>
</event>
<event>
      7  10001  1.11453E+07  4.07131E+00 -1.00000E+00  2.58553E-01
      21    -1     0     0   511   501  0.000000000E+00  0.000000000E+00  4.309688953E+00  4.309688953E+00  0.000000000E+00  0.00000E+00  9.000E+00
       2    -1     0     0   501     0  0.000000000E+00  0.000000000E+00 -5.389146566E+02  5.389146566E+02  0.000000000E+00  0.00000E+00  9.000E+00
      23     2     1     2     0     0 -2.741118965E+00  1.383126844E+00 -3.920607439E+02  3.920904742E+02  3.726430584E+00  0.00000E+00  9.000E+00
      11     1     3     3     0     0 -2.989516223E+00  5.881865139E-01 -3.719664520E+02  3.719789303E+02  5.110000000E-04  0.00000E+00  9.000E+00
     -11     1     3     3     0     0  2.483972577E-01  7.949403300E-01 -2.009429187E+01  2.011154388E+01  5.110000000E-04  0.00000E+00  9.000E+00
       2     1     1     2   502     0  5.565002039E+00  1.549657995E+00 -1.458039730E+02  1.459183649E+02  0.000000000E+00  0.00000E+00  9.000E+00
      21     1     1     2   511   502 -2.823883073E+00 -2.932784839E+00  3.259749207E+00  5.215506439E+00  1.976862425E-07  0.00000E+00  9.000E+00
#rwgt            1          17   7987743.2792410813                3     9896398           0
<weights>
0.11150E+08
0.12229E+08
0.98753E+07
0.12146E+08
0.99253E+07
0.11122E+08
0.10927E+08
0.11136E+08
0.11164E+08
0.11165E+08
0.11154E+08
0.10988E+08
0.11331E+08
0.11159E+08
0.11155E+08
0.11314E+08
0.10903E+08
0.11482E+08
0.10684E+08
0.10619E+08
0.11520E+08
0.11115E+08
0.11181E+08
0.11051E+08
0.11214E+08
0.11343E+08
0.11029E+08
0.10755E+08
0.11585E+08
0.11073E+08
0.11197E+08
0.11017E+08
0.11282E+08
0.11518E+08
0.10697E+08
0.11105E+08
0.11192E+08
0.11147E+08
0.11160E+08
0.11259E+08
0.11053E+08
0.11140E+08
0.11161E+08
0.11141E+08
0.11160E+08
</weights>
</event>
<event>
      7  10001  1.11453E+07  1.21247E+00 -1.00000E+00  4.93282E-01
       4    -1     0     0   501     0  0.000000000E+00  0.000000000E+00  2.657376939E-01  2.657376939E-01  0.000000000E+00  0.00000E+00  9.000E+00
      21    -1     0     0   502   501  0.000000000E+00  0.000000000E+00 -1.087174852E+01  1.087174852E+01  0.000000000E+00  0.00000E+00  9.000E+00
      23     2     1     2     0     0 -1.726230249E-01  3.736333865E-01 -3.102004455E+00  3.589236754E+00  1.758063772E+00  0.00000E+00  9.000E+00
      11     1     3     3     0     0  3.137263736E-01 -5.571401660E-01 -1.837151095E+00  1.945238754E+00  5.110000000E-04  0.00000E+00  9.000E+00
     -11     1     3     3     0     0 -4.863493985E-01  9.307735526E-01 -1.264853359E+00  1.643998001E+00  5.110000000E-04  0.00000E+00  9.000E+00
       4     1     1     2   511     0 -2.548326737E-01 -9.245335485E-02 -1.670969731E+00  1.692816338E+00  0.000000000E+00  0.00000E+00  9.000E+00
      21     1     1     2   502   511  4.274556987E-01 -2.811800317E-01 -5.833036644E+00  5.855433124E+00  0.000000000E+00  0.00000E+00  9.000E+00
#rwgt            1          28   1110189.9689042757                3     9901338           0
<weights>
0.11178E+08
0.14077E+08
0.83005E+07
0.12496E+08
0.94071E+07
0.12201E+08
0.93403E+07
0.11293E+08
0.11057E+08
0.10594E+08
0.10594E+08
0.10867E+08
0.10922E+08
0.10615E+08
0.10601E+08
0.11306E+08
0.11344E+08
0.11762E+08
0.11808E+08
0.11808E+08
0.11714E+08
0.11813E+08
0.11885E+08
0.11484E+08
0.11631E+08
0.11579E+08
0.11055E+08
0.11743E+08
0.11532E+08
0.11770E+08
0.11837E+08
0.11245E+08
0.11306E+08
0.11165E+08
0.11231E+08
0.11357E+08
0.11028E+08
0.11100E+08
0.11035E+08
0.11250E+08
0.11117E+08
0.11233E+08
0.11122E+08
0.11827E+08
0.10585E+08
</weights>
</event>
<event>
      7  10001  1.11453E+07  3.18637E+00 -1.00000E+00  2.84938E-01
      21    -1     0     0   502   501  0.000000000E+00  0.000000000E+00  1.210636589E+02  1.210636589E+02  0.000000000E+00  0.00000E+00  9.000E+00
      -2    -1     0     0     0   502  0.000000000E+00  0.000000000E+00 -6.455212702E-02  6.455212702E-02  0.000000000E+00  0.00000E+00  9.000E+00
      23     2     1     2     0     0  1.621984033E+00  1.065499864E+00  3.349041769E+01  3.357159825E+01  1.295380104E+00  0.00000E+00  9.000E+00
      11     1     3     3     0     0 -2.254094996E-01  1.559894579E-01  3.922025947E+00  3.931593817E+00  5.110000000E-04  0.00000E+00  9.000E+00
     -11     1     3     3     0     0  1.847393532E+00  9.095104057E-01  2.956839174E+01  2.964000443E+01  5.110000000E-04  0.00000E+00  9.000E+00
      -2     1     1     2     0   512 -7.847909240E-01  5.419657054E-01  1.896527235E+01  1.898923850E+01  0.000000000E+00  0.00000E+00  9.000E+00
      21     1     1     2   512   501 -8.371931089E-01 -1.607465569E+00  6.854341677E+01  6.856737431E+01  1.348699152E-06  0.00000E+00  9.000E+00
#rwgt            1          14   767201.92926494463                3     9953000           0
<weights>
0.11145E+08
0.11816E+08
0.10399E+08
0.12517E+08
0.96251E+07
0.10458E+08
0.11933E+08
0.10944E+08
0.11425E+08
0.10804E+08
0.10761E+08
0.10969E+08
0.10955E+08
0.10811E+08
0.10776E+08
0.11193E+08
0.11292E+08
0.11518E+08
0.11539E+08
0.11519E+08
0.11496E+08
0.11564E+08
0.11558E+08
0.11516E+08
0.11282E+08
0.11332E+08
0.11349E+08
0.11509E+08
0.11375E+08
0.11553E+08
0.11561E+08
0.11173E+08
0.11246E+08
0.11135E+08
0.11190E+08
0.11046E+08
0.11285E+08
0.11206E+08
0.11016E+08
0.11179E+08
0.11115E+08
0.11214E+08
0.11072E+08
0.11549E+08
0.10777E+08
</weights>
</event>
<event>
      6  10001 -1.11453E+07  8.94427E-01 -1.00000E+00  1.65476E-01
      21    -1     0     0   502   501  0.000000000E+00  0.000000000E+00  1.242122288E+02  1.242122288E+02  0.000000000E+00  0.00000E+00  9.000E+00
       2    -1     0     0   501     0  0.000000000E+00  0.000000000E+00 -1.488308712E-02  1.488308712E-02  0.000000000E+00  0.00000E+00  9.000E+00
      23     2     1     2     0     0 -1.919135292E-01 -2.463148057E-01  1.017114923E+02  1.017390905E+02  2.348908251E+00  0.00000E+00  9.000E+00
      11     1     3     3     0     0  5.626473747E-01 -5.531952311E-02  8.999345419E+01  8.999523004E+01  5.110000000E-04  0.00000E+00  9.000E+00
     -11     1     3     3     0     0 -7.545609039E-01 -1.909952826E-01  1.171803812E+01  1.174386048E+01  5.110000000E-04  0.00000E+00  9.000E+00
       2     1     1     2   502     0  1.919135292E-01  2.463148057E-01  2.248585339E+01  2.248802135E+01  0.000000000E+00  0.00000E+00  9.000E+00
#rwgt            1          17  -504451.94469521561                3     9986748           0
<weights>
-.11145E+08
-.12103E+08
-.99182E+07
-.14719E+08
-.79473E+07
-.91643E+07
-.13909E+08
-.11142E+08
-.11161E+08
-.10817E+08
-.10801E+08
-.10961E+08
-.10997E+08
-.10832E+08
-.10812E+08
-.11222E+08
-.11224E+08
-.11475E+08
-.11515E+08
-.11502E+08
-.11451E+08
-.11516E+08
-.11532E+08
-.11431E+08
-.11324E+08
-.11294E+08
-.11353E+08
-.11451E+08
-.11377E+08
-.11496E+08
-.11527E+08
-.11184E+08
-.11221E+08
-.11136E+08
-.11181E+08
-.11188E+08
-.11125E+08
-.11149E+08
-.11068E+08
-.11170E+08
-.11124E+08
-.11190E+08
-.11099E+08
-.11517E+08
-.10804E+08
</weights>
</event>
<event>
      7  10001  1.11453E+07  8.94427E-01 -1.00000E+00  6.07649E-01
      21    -1     0     0   511   502  0.000000000E+00  0.000000000E+00  3.331102888E-02  3.331102888E-02  0.000000000E+00  0.00000E+00  9.000E+00
       2    -1     0     0   501     0  0.000000000E+00  0.000000000E+00 -1.294772616E+03  1.294772616E+03  0.000000000E+00  0.00000E+00  9.000E+00
      23     2     1     2     0     0  5.861417907E-01 -3.111520931E-01 -1.274342686E+03  1.274343483E+03  1.261438287E+00  0.00000E+00  9.000E+00
      11     1     3     3     0     0  2.389712595E-01  2.128233524E-01 -8.106792189E+01  8.106855347E+01  5.110000000E-04  0.00000E+00  9.000E+00
     -11     1     3     3     0     0  3.471705313E-01 -5.239754455E-01 -1.193274764E+03  1.193274930E+03  5.110000000E-04  0.00000E+00  9.000E+00
      21     1     1     2   501   502 -8.154517899E-01 -2.661428447E-02 -5.495634689E+00  5.555868121E+00  7.127678837E-07  0.00000E+00  9.000E+00
       2     1     1     2   511     0  2.293099991E-01  3.377663775E-01 -1.490098460E+01  1.490657610E+01  0.000000000E+00  0.00000E+00  9.000E+00
#rwgt            2         190   8967857.3433105908                3     9988569           0
<weights>
0.11148E+08
0.99221E+07
0.12454E+08
0.12100E+08
0.99814E+07
0.91411E+07
0.13910E+08
0.11150E+08
0.11145E+08
0.11171E+08
0.11123E+08
0.10893E+08
0.11430E+08
0.11153E+08
0.11144E+08
0.10122E+08
0.12788E+08
0.11600E+08
0.10543E+08
0.10422E+08
0.11681E+08
0.11164E+08
0.11121E+08
0.10809E+08
0.11474E+08
0.12021E+08
0.10646E+08
0.10371E+08
0.12096E+08
0.11051E+08
0.11217E+08
0.11524E+08
0.10774E+08
0.12033E+08
0.10138E+08
0.10989E+08
0.11295E+08
0.11089E+08
0.11225E+08
0.11402E+08
0.10926E+08
0.11100E+08
0.11198E+08
0.11145E+08
0.11151E+08
</weights>
</event>
<event>
      7  10001  1.11453E+07  8.94427E-01 -1.00000E+00  6.07649E-01
       2    -1     0     0   501     0  0.000000000E+00  0.000000000E+00  1.347173193E+01  1.347173193E+01  0.000000000E+00  0.00000E+00  9.000E+00
      21    -1     0     0   511   502  0.000000000E+00  0.000000000E+00 -1.367785457E+00  1.367785457E+00  0.000000000E+00  0.00000E+00  9.000E+00
      23     2     1     2     0     0 -4.507109633E-01 -4.594784835E-01  1.255549614E+01  1.287095461E+01  2.758029801E+00  0.00000E+00  9.000E+00
      11     1     3     3     0     0  2.180775886E-01 -8.913970753E-01  1.322074045E+00  1.609355965E+00  5.110000000E-04  0.00000E+00  9.000E+00
     -11     1     3     3     0     0 -6.687885518E-01  4.319185918E-01  1.123342210E+01  1.126159865E+01  5.110000000E-04  0.00000E+00  9.000E+00
      21     1     1     2   501   502  1.134156180E+00  3.277555529E-01 -4.740251454E-01  1.272176789E+00  7.955043206E-08  0.00000E+00  9.000E+00
       2     1     1     2   511     0 -6.834452167E-01  1.317229306E-01  2.247547506E-02  6.963859861E-01  0.000000000E+00  0.00000E+00  9.000E+00
#rwgt            2         249   2645533.4344205642                3     9992126           0
<weights>
0.11145E+08
0.10992E+08
0.11083E+08
0.13359E+08
0.88805E+07
0.91702E+07
0.13910E+08
0.11199E+08
0.11089E+08
0.10855E+08
0.10862E+08
0.10971E+08
0.11037E+08
0.10879E+08
0.10870E+08
0.11224E+08
0.11183E+08
0.11421E+08
0.11432E+08
0.11428E+08
0.11399E+08
0.11445E+08
0.11470E+08
0.11312E+08
0.11338E+08
0.11289E+08
0.11155E+08
0.11390E+08
0.11323E+08
0.11417E+08
0.11457E+08
0.11170E+08
0.11214E+08
0.11139E+08
0.11170E+08
0.11233E+08
0.11073E+08
0.11074E+08
0.11144E+08
0.11151E+08
0.11141E+08
0.11174E+08
0.11115E+08
0.11457E+08
0.10856E+08
</weights>
</event>
<event>
      7  10001  1.11453E+07  2.32552E+00 -1.00000E+00  3.28110E-01
       2    -1     0     0   501     0  0.000000000E+00  0.000000000E+00  1.675843587E+02  1.675843587E+02  0.000000000E+00  0.00000E+00  9.000E+00
      21    -1     0     0   502   501  0.000000000E+00  0.000000000E+00 -3.170682695E-01  3.170682695E-01  0.000000000E+00  0.00000E+00  9.000E+00
      23     2     1     2     0     0  4.296058904E-01 -6.813122045E-01  1.606937547E+02  1.606998877E+02  1.149946284E+00  0.00000E+00  9.000E+00
      11     1     3     3     0     0 -1.823257273E-01  2.355365241E-01  3.927918882E+01  3.928031816E+01  5.110000000E-04  0.00000E+00  9.000E+00
     -11     1     3     3     0     0  6.119316178E-01 -9.168487286E-01  1.214145659E+02  1.214195696E+02  5.110000000E-04  0.00000E+00  9.000E+00
       2     1     1     2   511     0  6.882373183E-01  1.420658657E+00  3.108929517E+00  3.486744092E+00  0.000000000E+00  0.00000E+00  9.000E+00
      21     1     1     2   502   511 -1.117843209E+00 -7.393464522E-01  3.464606236E+00  3.714795147E+00  3.601028315E-07  0.00000E+00  9.000E+00
#rwgt            1          24   69806079.072923526                3     9993308           0
<weights>
0.11145E+08
0.11860E+08
0.10174E+08
0.13054E+08
0.91199E+07
0.10128E+08
0.12439E+08
0.11178E+08
0.11111E+08
0.10805E+08
0.10787E+08
0.10953E+08
0.10995E+08
0.10820E+08
0.10799E+08
0.11232E+08
0.11221E+08
0.11492E+08
0.11523E+08
0.11514E+08
0.11465E+08
0.11533E+08
0.11548E+08
0.11419E+08
0.11342E+08
0.11303E+08
0.11290E+08
0.11465E+08
0.11391E+08
0.11513E+08
0.11545E+08
0.11194E+08
0.11216E+08
0.11134E+08
0.11184E+08
0.11212E+08
0.11098E+08
0.11163E+08
0.11050E+08
0.11175E+08
0.11120E+08
0.11188E+08
0.11101E+08
0.11533E+08
0.10790E+08
</weights>
</event>
<event>
      6  10001 -1.11453E+07  8.94427E-01 -1.00000E+00  1.85858E-01
      21    -1     0     0   502   501  0.000000000E+00  0.000000000E+00  6.376018050E-03  6.376018050E-03  0.000000000E+00  0.00000E+00  9.000E+00
       3    -1     0     0   501     0  0.000000000E+00  0.000000000E+00 -1.468784081E+02  1.468784081E+02  0.000000000E+00  0.00000E+00  9.000E+00
      23     2     1     2     0     0 -1.336502544E-01 -4.139362241E-01 -1.065499471E+02  1.065603531E+02  1.424220654E+00  0.00000E+00  9.000E+00
      11     1     3     3     0     0 -3.713622093E-02  5.162007452E-01 -4.995496655E+01  4.995764732E+01  5.110000000E-04  0.00000E+00  9.000E+00
     -11     1     3     3     0     0 -9.651403345E-02 -9.301369693E-01 -5.659498059E+01  5.660270574E+01  5.110000000E-04  0.00000E+00  9.000E+00
       3     1     1     2   502     0  1.336502544E-01  4.139362241E-01 -4.032208496E+01  4.032443107E+01  0.000000000E+00  0.00000E+00  9.000E+00
#rwgt            1          18  -572093.66635478626                3    10122983           0
<weights>
-.11145E+08
-.12437E+08
-.96565E+07
-.15116E+08
-.77373E+07
-.91702E+07
-.13910E+08
-.11064E+08
-.11222E+08
-.11236E+08
-.11331E+08
-.11481E+08
-.10867E+08
-.11311E+08
-.11264E+08
-.12792E+08
-.90386E+07
-.11726E+08
-.10048E+08
-.99514E+07
-.11759E+08
-.10975E+08
-.10978E+08
-.96848E+07
-.12574E+08
-.11743E+08
-.99339E+07
-.10002E+08
-.12230E+08
-.10915E+08
-.11061E+08
-.11269E+08
-.10970E+08
-.11205E+08
-.11095E+08
-.11132E+08
-.11150E+08
-.11196E+08
-.11116E+08
-.11083E+08
-.11189E+08
-.11252E+08
-.11031E+08
-.10987E+08
-.11285E+08
</weights>
</event>
<event>
      6  10001 -1.11453E+07  8.94427E-01 -1.00000E+00  3.74746E-01
       2    -1     0     0   501     0  0.000000000E+00  0.000000000E+00  1.857195186E+02  1.857195186E+02  0.000000000E+00  0.00000E+00  9.000E+00
      21    -1     0     0   502   501  0.000000000E+00  0.000000000E+00 -1.955351709E-02  1.955351709E-02  0.000000000E+00  0.00000E+00  9.000E+00
      23     2     1     2     0     0  2.248538312E-02  1.014587803E+00  1.607544182E+02  1.607728909E+02  2.215759855E+00  0.00000E+00  9.000E+00
      11     1     3     3     0     0  1.071367768E+00  5.164968614E-01  1.025118196E+02  1.025187191E+02  5.110000000E-04  0.00000E+00  9.000E+00
     -11     1     3     3     0     0 -1.048882385E+00  4.980909413E-01  5.824259858E+01  5.825417186E+01  5.110000000E-04  0.00000E+00  9.000E+00
       2     1     1     2   502     0 -2.248538312E-02 -1.014587803E+00  2.494554689E+01  2.496618120E+01  0.000000000E+00  0.00000E+00  9.000E+00
#rwgt            1          24  -11143880.186190577                3    10123803           0
<weights>
-.11145E+08
-.12610E+08
-.94453E+07
-.15334E+08
-.75683E+07
-.91655E+07
-.13909E+08
-.11179E+08
-.11112E+08
-.10846E+08
-.10847E+08
-.10971E+08
-.11024E+08
-.10869E+08
-.10856E+08
-.11223E+08
-.11193E+08
-.11430E+08
-.11462E+08
-.11452E+08
-.11409E+08
-.11463E+08
-.11483E+08
-.11370E+08
-.11321E+08
-.11274E+08
-.11302E+08
-.11400E+08
-.11344E+08
-.11438E+08
-.11475E+08
-.11174E+08
-.11215E+08
-.11140E+08
-.11172E+08
-.11214E+08
-.11094E+08
-.11099E+08
-.11126E+08
-.11156E+08
-.11137E+08
-.11180E+08
-.11109E+08
-.11472E+08
-.10843E+08
</weights>
</event>
<event>
      6  10001 -1.11453E+07  8.94427E-01 -1.00000E+00  2.49297E-01
      21    -1     0     0   502   501  0.000000000E+00  0.000000000E+00  7.667307842E-03  7.667307842E-03  0.000000000E+00  0.00000E+00  9.000E+00
       2    -1     0     0   501     0  0.000000000E+00  0.000000000E+00 -7.622231402E+02  7.622231402E+02  0.000000000E+00  0.00000E+00  9.000E+00
      23     2     1     2     0     0 -4.603629148E-02 -4.134739161E-01 -7.562711767E+02  7.562719706E+02  1.013772698E+00  0.00000E+00  9.000E+00
      11     1     3     3     0     0  9.600098922E-03 -7.410743635E-01 -4.457786777E+02  4.457792938E+02  5.110000000E-04  0.00000E+00  9.000E+00
     -11     1     3     3     0     0 -5.563639040E-02  3.276004473E-01 -3.104924990E+02  3.104926768E+02  5.110000000E-04  0.00000E+00  9.000E+00
       2     1     1     2   502     0  4.603629148E-02  4.134739161E-01 -5.944296234E+00  5.958836945E+00  0.000000000E+00  0.00000E+00  9.000E+00
#rwgt            1          17  -105742099.24280989                3    10127840           0
<weights>
-.11146E+08
-.11053E+08
-.11133E+08
-.13458E+08
-.89210E+07
-.91548E+07
-.13910E+08
-.11136E+08
-.11156E+08
-.11164E+08
-.11140E+08
-.10925E+08
-.11394E+08
-.11154E+08
-.11147E+08
-.11005E+08
-.11343E+08
-.11581E+08
-.10557E+08
-.10464E+08
-.11640E+08
-.11121E+08
-.11169E+08
-.10939E+08
-.11327E+08
-.11567E+08
-.10894E+08
-.10566E+08
-.11825E+08
-.11050E+08
-.11212E+08
-.11121E+08
-.11169E+08
-.11736E+08
-.10448E+08
-.11057E+08
-.11229E+08
-.11122E+08
-.11182E+08
-.11319E+08
-.10994E+08
-.11119E+08
-.11175E+08
-.11140E+08
-.11154E+08
</weights>
</event>
<event>
      7  10001 -1.11453E+07  1.10407E+00 -1.00000E+00  5.25701E-01
      -3    -1     0     0     0   502  0.000000000E+00  0.000000000E+00  1.323832949E+00  1.323832949E+00  0.000000000E+00  0.00000E+00  9.000E+00
      21    -1     0     0   511   501  0.000000000E+00  0.000000000E+00 -2.071331000E+01  2.071331000E+01  0.000000000E+00  0.00000E+00  9.000E+00
      23     2     1     2     0     0 -3.992523554E-01 -3.329313540E-01  8.114331605E-01  1.463091902E+00  1.100894368E+00  0.00000E+00  9.000E+00
      11     1     3     3     0     0 -5.999873493E-01  7.750487518E-02  9.357478780E-02  6.121669111E-01  5.110000000E-04  0.00000E+00  9.000E+00
     -11     1     3     3     0     0  2.007349939E-01 -4.104362291E-01  7.178583727E-01  8.509249910E-01  5.110000000E-04  0.00000E+00  9.000E+00
      -3     1     1     2     0   501 -2.051942706E-01 -5.909788781E-01 -4.003318331E-01  7.427154904E-01  0.000000000E+00  0.00000E+00  9.000E+00
      21     1     1     2   511   502  6.044466260E-01  9.239102321E-01 -1.980057838E+01  1.983133555E+01  2.384185791E-07  0.00000E+00  9.000E+00
#rwgt            1           5  -83030.845516833506                3    10130560           0
<weights>
-.11145E+08
-.86642E+07
-.12773E+08
-.17220E+08
-.65575E+07
-.49829E+07
-.20338E+08
-.11210E+08
-.11082E+08
-.11239E+08
-.11337E+08
-.11148E+08
-.11280E+08
-.11277E+08
-.11329E+08
-.11131E+08
-.11008E+08
-.10942E+08
-.10945E+08
-.10949E+08
-.10958E+08
-.10896E+08
-.10970E+08
-.10887E+08
-.11149E+08
-.11069E+08
-.10940E+08
-.10910E+08
-.10964E+08
-.10854E+08
-.10907E+08
-.11045E+08
-.11174E+08
-.11171E+08
-.11093E+08
-.11229E+08
-.11058E+08
-.10750E+08
-.11542E+08
-.11040E+08
-.11238E+08
-.11107E+08
-.11186E+08
-.10960E+08
-.11302E+08
</weights>
</event>
<event>
      7  10001  1.11453E+07  8.94427E-01 -1.00000E+00  6.07649E-01
      21    -1     0     0   501   511  0.000000000E+00  0.000000000E+00  1.288866698E-01  1.288866698E-01  0.000000000E+00  0.00000E+00  9.000E+00
      -1    -1     0     0     0   502  0.000000000E+00  0.000000000E+00 -1.983194178E+02  1.983194178E+02  0.000000000E+00  0.00000E+00  9.000E+00
      23     2     1     2     0     0  4.281481595E-01  5.654292912E-02 -1.871248129E+02  1.871302111E+02  1.354179874E+00  0.00000E+00  9.000E+00
      11     1     3     3     0     0 -2.743525313E-01  1.920659736E-03 -9.403869343E+00  9.407870741E+00  5.110000000E-04  0.00000E+00  9.000E+00
     -11     1     3     3     0     0  7.025006908E-01  5.462226938E-02 -1.777209435E+02  1.777223403E+02  5.110000000E-04  0.00000E+00  9.000E+00
      21     1     1     2   501   502 -9.353440352E-01  2.429523738E-01 -1.882993549E+00  2.116496876E+00  3.311948593E-07  0.00000E+00  9.000E+00
      -1     1     1     2     0   511  5.071958757E-01 -2.994953029E-01 -9.182724711E+00  9.201596504E+00  0.000000000E+00  0.00000E+00  9.000E+00
#rwgt            2         164   731592.53386042791                3    10135132           0
<weights>
0.11145E+08
0.10658E+08
0.11511E+08
0.12954E+08
0.92234E+07
0.91702E+07
0.13910E+08
0.11068E+08
0.11216E+08
0.11271E+08
0.11271E+08
0.11130E+08
0.11189E+08
0.11268E+08
0.11273E+08
0.11029E+08
0.11216E+08
0.11095E+08
0.10931E+08
0.10905E+08
0.11116E+08
0.11005E+08
0.11019E+08
0.11115E+08
0.11030E+08
0.11038E+08
0.11162E+08
0.11014E+08
0.10976E+08
0.11027E+08
0.11032E+08
0.11241E+08
0.11004E+08
0.11344E+08
0.10950E+08
0.11186E+08
0.11083E+08
0.11305E+08
0.10978E+08
0.11147E+08
0.11123E+08
0.11348E+08
0.10927E+08
0.11000E+08
0.11280E+08
</weights>
</event>
<event>
      6  10001 -1.11453E+07  8.94427E-01 -1.00000E+00  5.02866E-01
      -3    -1     0     0     0   502  0.000000000E+00  0.000000000E+00  5.921531687E+01  5.921531687E+01  0.000000000E+00  0.00000E+00  9.000E+00
      21    -1     0     0   502   501  0.000000000E+00  0.000000000E+00 -1.855618693E-02  1.855618693E-02  0.000000000E+00  0.00000E+00  9.000E+00
      23     2     1     2     0     0  1.927267452E-01 -1.837448778E-01  5.771462332E+01  5.772800555E+01  1.214073438E+00  0.00000E+00  9.000E+00
      11     1     3     3     0     0 -1.211607010E-01  2.044944755E-02  5.242518416E+01  5.242532815E+01  5.110000000E-04  0.00000E+00  9.000E+00
     -11     1     3     3     0     0  3.138874463E-01 -2.041943254E-01  5.289439159E+00  5.302677393E+00  5.110000000E-04  0.00000E+00  9.000E+00
      -3     1     1     2     0   501 -1.927267452E-01  1.837448778E-01  1.482137370E+00  1.505867511E+00  0.000000000E+00  0.00000E+00  9.000E+00
#rwgt            1           5  -684772.50111050508                3    10135231           0
<weights>
-.11145E+08
-.12508E+08
-.95895E+07
-.15209E+08
-.76838E+07
-.91661E+07
-.13909E+08
-.11174E+08
-.11117E+08
-.10827E+08
-.10819E+08
-.10963E+08
-.11010E+08
-.10846E+08
-.10830E+08
-.11225E+08
-.11208E+08
-.11456E+08
-.11496E+08
-.11485E+08
-.11433E+08
-.11494E+08
-.11514E+08
-.11402E+08
-.11329E+08
-.11286E+08
-.11336E+08
-.11429E+08
-.11366E+08
-.11471E+08
-.11507E+08
-.11182E+08
-.11217E+08
-.11138E+08
-.11177E+08
-.11211E+08
-.11099E+08
-.11125E+08
-.11091E+08
-.11164E+08
-.11129E+08
-.11184E+08
-.11105E+08
-.11499E+08
-.10819E+08
</weights>
</event>
<event>
      6  10001 -1.11453E+07  8.94427E-01 -1.00000E+00  2.18705E-01
      -5    -1     0     0     0   502  0.000000000E+00  0.000000000E+00  4.711585717E+02  4.711585717E+02  0.000000000E+00  0.00000E+00  9.000E+00
      21    -1     0     0   502   501  0.000000000E+00  0.000000000E+00 -2.507724980E-02  2.507724980E-02  0.000000000E+00  0.00000E+00  9.000E+00
      23     2     1     2     0     0  1.115599825E-01 -8.334092182E-01  4.637776337E+02  4.637798861E+02  1.175686755E+00  0.00000E+00  9.000E+00
      11     1     3     3     0     0  4.475270384E-01 -9.251808958E-01  2.729946715E+02  2.729966061E+02  5.110000000E-04  0.00000E+00  9.000E+00
     -11     1     3     3     0     0 -3.359670559E-01  9.177167763E-02  1.907829622E+02  1.907832801E+02  5.110000000E-04  0.00000E+00  9.000E+00
      -5     1     1     2     0   501 -1.115599825E-01  8.334092182E-01  7.355860745E+00  7.403762817E+00  0.000000000E+00  0.00000E+00  9.000E+00
#rwgt            1           1  -705293.31286729791                3    10137744           0
<weights>
-.11145E+08
-.13272E+08
-.86218E+07
-.16132E+08
-.69083E+07
-.91693E+07
-.13910E+08
-.11171E+08
-.11121E+08
-.10822E+08
-.10810E+08
-.10961E+08
-.11005E+08
-.10839E+08
-.10821E+08
-.11226E+08
-.11213E+08
-.11465E+08
-.11507E+08
-.11495E+08
-.11441E+08
-.11505E+08
-.11524E+08
-.11416E+08
-.11329E+08
-.11288E+08
-.11359E+08
-.11438E+08
-.11374E+08
-.11483E+08
-.11517E+08
-.11184E+08
-.11217E+08
-.11137E+08
-.11178E+08
-.11208E+08
-.11102E+08
-.11136E+08
-.11080E+08
-.11167E+08
-.11127E+08
-.11186E+08
-.11103E+08
-.11508E+08
-.10811E+08
</weights>
</event>
<event>
      6  10001 -1.11453E+07  8.94427E-01 -1.00000E+00  6.02490E-01
      -4    -1     0     0     0   502  0.000000000E+00  0.000000000E+00  3.653063896E+00  3.653063896E+00  0.000000000E+00  0.00000E+00  9.000E+00
      21    -1     0     0   502   501  0.000000000E+00  0.000000000E+00 -4.427241930E-01  4.427241930E-01  0.000000000E+00  0.00000E+00  9.000E+00
      23     2     1     2     0     0  2.440290690E-01  8.826798788E-02  3.521994177E+00  3.690239159E+00  1.070551558E+00  0.00000E+00  9.000E+00
      11     1     3     3     0     0 -1.720824445E-01  2.771616631E-01  2.900671818E+00  2.918960125E+00  5.110000000E-04  0.00000E+00  9.000E+00
     -11     1     3     3     0     0  4.161115135E-01 -1.888936752E-01  6.213223594E-01  7.712790335E-01  5.110000000E-04  0.00000E+00  9.000E+00
      -4     1     1     2     0   501 -2.440290690E-01 -8.826798788E-02 -3.116544740E-01  4.055489309E-01  0.000000000E+00  0.00000E+00  9.000E+00
#rwgt            1           3  -1059649.2711777964                3    10141396           0
<weights>
-.11145E+08
-.98361E+07
-.11528E+08
-.16733E+08
-.66373E+07
-.61879E+07
-.18488E+08
-.11235E+08
-.11055E+08
-.11080E+08
-.11176E+08
-.11080E+08
-.11192E+08
-.11133E+08
-.11169E+08
-.11168E+08
-.11056E+08
-.11110E+08
-.11101E+08
-.11106E+08
-.11111E+08
-.11081E+08
-.11141E+08
-.10984E+08
-.11253E+08
-.11164E+08
-.10922E+08
-.11072E+08
-.11074E+08
-.11031E+08
-.11092E+08
-.11078E+08
-.11196E+08
-.11173E+08
-.11104E+08
-.11256E+08
-.11038E+08
-.10773E+08
-.11495E+08
-.11070E+08
-.11212E+08
-.11128E+08
-.11164E+08
-.11138E+08
-.11138E+08
</weights>
</event>
<event>
      7  10001  1.11453E+07  1.55954E+00 -1.00000E+00  4.07342E-01
       4    -1     0     0   501     0  0.000000000E+00  0.000000000E+00  4.356077526E-01  4.356077526E-01  0.000000000E+00  0.00000E+00  9.000E+00
      21    -1     0     0   502   511  0.000000000E+00  0.000000000E+00 -6.585025117E+02  6.585025117E+02  0.000000000E+00  0.00000E+00  9.000E+00
      23     2     1     2     0     0  1.807352115E-01  4.207405622E-02 -2.754601617E+00  3.334075451E+00  1.869169226E+00  0.00000E+00  9.000E+00
      11     1     3     3     0     0 -3.786534156E-01  2.310413527E-01 -2.705468307E+00  2.741590330E+00  5.110000000E-04  0.00000E+00  9.000E+00
     -11     1     3     3     0     0  5.593886270E-01 -1.889672965E-01 -4.913331077E-02  5.924851209E-01  5.110000000E-04  0.00000E+00  9.000E+00
       4     1     1     2   502     0 -1.738373887E+00 -1.190146624E-01 -5.092055726E+00  5.381927144E+00  0.000000000E+00  0.00000E+00  9.000E+00
      21     1     1     2   501   511  1.557638676E+00  7.694060618E-02 -6.502202466E+02  6.502221169E+02  1.078959322E-05  0.00000E+00  9.000E+00
#rwgt            1          28   385662.22541111900                3    10161612           0
<weights>
0.11145E+08
0.15173E+08
0.74310E+07
0.10924E+08
0.10387E+08
0.14036E+08
0.64397E+07
0.11271E+08
0.11011E+08
0.10413E+08
0.10383E+08
0.10766E+08
0.10799E+08
0.10422E+08
0.10393E+08
0.11299E+08
0.11385E+08
0.11910E+08
0.11964E+08
0.11965E+08
0.11846E+08
0.11985E+08
0.12052E+08
0.11590E+08
0.11682E+08
0.11629E+08
0.11043E+08
0.11894E+08
0.11630E+08
0.11946E+08
0.12012E+08
0.11250E+08
0.11297E+08
0.11125E+08
0.11221E+08
0.11337E+08
0.10989E+08
0.11169E+08
0.10867E+08
0.11265E+08
0.11043E+08
0.11220E+08
0.11068E+08
0.11984E+08
0.10382E+08
</weights>
</event>
<event>
      6  10001 -1.11453E+07  8.94427E-01 -1.00000E+00  1.48068E-01
       2    -1     0     0   501     0  0.000000000E+00  0.000000000E+00  4.603654907E+01  4.603654907E+01  0.000000000E+00  0.00000E+00  9.000E+00
      21    -1     0     0   502   501  0.000000000E+00  0.000000000E+00 -2.275983282E-02  2.275983282E-02  0.000000000E+00  0.00000E+00  9.000E+00
      23     2     1     2     0     0  3.293324388E-01  2.286686632E-01  4.174333887E+01  4.177007873E+01  1.439578807E+00  0.00000E+00  9.000E+00
      11     1     3     3     0     0  4.974422858E-01 -2.708782478E-01  3.550368899E+01  3.550820688E+01  5.110000000E-04  0.00000E+00  9.000E+00
     -11     1     3     3     0     0 -1.681098471E-01  4.995469109E-01  6.239649882E+00  6.261871841E+00  5.110000000E-04  0.00000E+00  9.000E+00
       2     1     1     2   502     0 -3.293324388E-01 -2.286686632E-01  4.270450360E+00  4.289230174E+00  0.000000000E+00  0.00000E+00  9.000E+00
#rwgt            1          24  -9546024.0107312519                3    10211908           0
<weights>
-.11145E+08
-.12529E+08
-.95884E+07
-.15236E+08
-.76830E+07
-.91650E+07
-.13909E+08
-.11172E+08
-.11119E+08
-.10823E+08
-.10813E+08
-.10962E+08
-.11006E+08
-.10841E+08
-.10824E+08
-.11226E+08
-.11211E+08
-.11462E+08
-.11504E+08
-.11492E+08
-.11439E+08
-.11502E+08
-.11521E+08
-.11411E+08
-.11329E+08
-.11287E+08
-.11348E+08
-.11435E+08
-.11372E+08
-.11479E+08
-.11514E+08
-.11184E+08
-.11217E+08
-.11138E+08
-.11178E+08
-.11209E+08
-.11101E+08
-.11132E+08
-.11084E+08
-.11166E+08
-.11128E+08
-.11185E+08
-.11104E+08
-.11506E+08
-.10814E+08
</weights>
</event>
<event>
      6  10001 -1.11453E+07  8.94427E-01 -1.00000E+00  5.28668E-01
       2    -1     0     0   501     0  0.000000000E+00  0.000000000E+00  2.239992208E+02  2.239992208E+02  0.000000000E+00  0.00000E+00  9.000E+00
      -2    -1     0     0     0   502  0.000000000E+00  0.000000000E+00 -7.798693470E-03  7.798693470E-03  0.000000000E+00  0.00000E+00  9.000E+00
      23     2     1     2     0     0 -5.049730753E-01  1.367778619E-01  1.340246076E+02  1.340386839E+02  1.870727114E+00  0.00000E+00  9.000E+00
      11     1     3     3     0     0 -5.418990526E-02  9.381749507E-01  4.826826500E+01  4.827741206E+01  5.110000000E-04  0.00000E+00  9.000E+00
     -11     1     3     3     0     0 -4.507831700E-01 -8.013970889E-01  8.575634261E+01  8.576127180E+01  5.110000000E-04  0.00000E+00  9.000E+00
      21     1     1     2   501   502  5.049730753E-01 -1.367778619E-01  8.996681450E+01  8.996833564E+01  9.536743164E-07  0.00000E+00  9.000E+00
#rwgt            1          23  -1104771.1221124791                3    10215478           0
<weights>
-.11147E+08
-.12068E+08
-.99624E+07
-.14708E+08
-.79839E+07
-.91459E+07
-.13909E+08
-.11154E+08
-.11147E+08
-.10818E+08
-.10803E+08
-.10962E+08
-.11000E+08
-.10834E+08
-.10815E+08
-.11226E+08
-.11222E+08
-.11475E+08
-.11516E+08
-.11503E+08
-.11451E+08
-.11516E+08
-.11533E+08
-.11429E+08
-.11328E+08
-.11294E+08
-.11359E+08
-.11450E+08
-.11380E+08
-.11496E+08
-.11527E+08
-.11187E+08
-.11221E+08
-.11138E+08
-.11182E+08
-.11196E+08
-.11119E+08
-.11148E+08
-.11071E+08
-.11171E+08
-.11126E+08
-.11190E+08
-.11101E+08
-.11518E+08
-.10806E+08
</weights>
</event>
<event>
      6  10001 -1.11453E+07  8.94427E-01 -1.00000E+00  1.49383E-01
      -4    -1     0     0     0   502  0.000000000E+00  0.000000000E+00  2.365490144E-02  2.365490144E-02  0.000000000E+00  0.00000E+00  9.000E+00
      21    -1     0     0   502   501  0.000000000E+00  0.000000000E+00 -2.187516156E+01  2.187516156E+01  0.000000000E+00  0.00000E+00  9.000E+00
      23     2     1     2     0     0 -2.693119314E-02 -2.809083111E-01 -1.737199317E+01  1.741042300E+01  1.121181332E+00  0.00000E+00  9.000E+00
      11     1     3     3     0     0  2.024259036E-02 -5.636324802E-01 -1.594265647E+01  1.595262947E+01  5.110000000E-04  0.00000E+00  9.000E+00
     -11     1     3     3     0     0 -4.717378350E-02  2.827241691E-01 -1.429336694E+00  1.457793527E+00  5.110000000E-04  0.00000E+00  9.000E+00
      -4     1     1     2     0   501  2.693119314E-02  2.809083111E-01 -4.479513486E+00  4.488393459E+00  0.000000000E+00  0.00000E+00  9.000E+00
#rwgt            1           3  -1482173.3813352252                3    10216657           0
<weights>
-.11145E+08
-.12902E+08
-.91996E+07
-.15681E+08
-.73712E+07
-.91702E+07
-.13910E+08
-.11218E+08
-.11072E+08
-.10923E+08
-.10973E+08
-.10995E+08
-.11102E+08
-.10964E+08
-.10975E+08
-.11202E+08
-.11139E+08
-.11310E+08
-.11319E+08
-.11315E+08
-.11299E+08
-.11313E+08
-.11357E+08
-.11187E+08
-.11331E+08
-.11282E+08
-.11064E+08
-.11282E+08
-.11217E+08
-.11272E+08
-.11325E+08
-.11126E+08
-.11218E+08
-.11151E+08
-.11146E+08
-.11265E+08
-.11039E+08
-.10925E+08
-.11314E+08
-.11114E+08
-.11174E+08
-.11152E+08
-.11139E+08
-.11348E+08
-.10951E+08
</weights>
</event>
<event>
      7  10001 -1.11453E+07  1.31108E+00 -1.00000E+00  4.68002E-01
       2    -1     0     0   501     0  0.000000000E+00  0.000000000E+00  1.962128720E+01  1.962128720E+01  0.000000000E+00  0.00000E+00  9.000E+00
      21    -1     0     0   502   511  0.000000000E+00  0.000000000E+00 -1.678435854E+01  1.678435854E+01  0.000000000E+00  0.00000E+00  9.000E+00
      23     2     1     2     0     0 -7.153458248E-01  1.254736124E-01  1.422607924E+01  1.428946190E+01  1.131338820E+00  0.00000E+00  9.000E+00
      11     1     3     3     0     0  1.547355502E-01  3.715280603E-01  2.973621552E+00  3.000733508E+00  5.110000000E-04  0.00000E+00  9.000E+00
     -11     1     3     3     0     0 -8.700813750E-01 -2.460544480E-01  1.125245769E+01  1.128872839E+01  5.110000000E-04  0.00000E+00  9.000E+00
       2     1     1     2   502     0 -4.383976382E-01  4.972743869E-01  5.317250363E+00  5.358416345E+00  0.000000000E+00  0.00000E+00  9.000E+00
      21     1     1     2   501   511  1.153743463E+00 -6.227479992E-01 -1.670640095E+01  1.675776750E+01  2.384185791E-07  0.00000E+00  9.000E+00
#rwgt            1          24  -742247.78384122462                3    10219556           0
<weights>
-.11145E+08
-.64972E+07
-.14989E+08
-.16960E+08
-.69013E+07
-.34364E+07
-.22712E+08
-.11297E+08
-.10974E+08
-.11022E+08
-.11118E+08
-.11033E+08
-.11184E+08
-.11079E+08
-.11114E+08
-.11203E+08
-.11043E+08
-.11182E+08
-.11108E+08
-.11128E+08
-.11175E+08
-.11141E+08
-.11208E+08
-.10897E+08
-.11337E+08
-.11234E+08
-.10467E+08
-.11128E+08
-.11094E+08
-.11085E+08
-.11156E+08
-.11087E+08
-.11204E+08
-.11160E+08
-.11119E+08
-.11315E+08
-.10976E+08
-.10750E+08
-.11465E+08
-.11071E+08
-.11212E+08
-.11129E+08
-.11163E+08
-.11201E+08
-.11080E+08
</weights>
</event>
<event>
      7  10001  1.11453E+07  8.94427E-01 -1.00000E+00  6.07649E-01
      -4    -1     0     0     0   502  0.000000000E+00  0.000000000E+00  8.542917914E+01  8.542917914E+01  0.000000000E+00  0.00000E+00  9.000E+00
      21    -1     0     0   501   511  0.000000000E+00  0.000000000E+00 -1.240669106E-01  1.240669106E-01  0.000000000E+00  0.00000E+00  9.000E+00
      23     2     1     2     0     0  2.505435626E-01 -2.685192155E-01  7.614632550E+01  7.617308314E+01  1.985153380E+00  0.00000E+00  9.000E+00
      11     1     3     3     0     0  2.609950893E-01  7.874514257E-01  2.056329390E+01  2.058002075E+01  5.110000000E-04  0.00000E+00  9.000E+00
     -11     1     3     3     0     0 -1.045152673E-02 -1.055970641E+00  5.558303160E+01  5.559306239E+01  5.110000000E-04  0.00000E+00  9.000E+00
      21     1     1     2   501   502 -8.390078336E-01  6.726945912E-01  3.136979019E+00  3.316185991E+00  1.632340424E-07  0.00000E+00  9.000E+00
      -4     1     1     2     0   511  5.884642710E-01 -4.041753756E-01  6.021807709E+00  6.063976915E+00  0.000000000E+00  0.00000E+00  9.000E+00
#rwgt            2          42   1473774.9233485244                3    10249183           0
<weights>
0.11145E+08
0.11537E+08
0.10396E+08
0.14022E+08
0.83295E+07
0.91702E+07
0.13910E+08
0.11179E+08
0.11110E+08
0.10825E+08
0.10817E+08
0.10962E+08
0.11009E+08
0.10843E+08
0.10827E+08
0.11227E+08
0.11207E+08
0.11461E+08
0.11494E+08
0.11484E+08
0.11437E+08
0.11497E+08
0.11517E+08
0.11392E+08
0.11334E+08
0.11290E+08
0.11289E+08
0.11432E+08
0.11367E+08
0.11474E+08
0.11510E+08
0.11183E+08
0.11216E+08
0.11138E+08
0.11177E+08
0.11214E+08
0.11095E+08
0.11127E+08
0.11089E+08
0.11165E+08
0.11129E+08
0.11184E+08
0.11105E+08
0.11502E+08
0.10817E+08
</weights>
</event>
<event>
      7  10001  1.11453E+07  1.80230E+00 -1.00000E+00  3.74427E-01
      21    -1     0     0   511   502  0.000000000E+00  0.000000000E+00  9.837752735E+00  9.837752735E+00  0.000000000E+00  0.00000E+00  9.000E+00
       2    -1     0     0   501     0  0.000000000E+00  0.000000000E+00 -7.551708771E+00  7.551708771E+00  0.000000000E+00  0.00000E+00  9.000E+00
      23     2     1     2     0     0 -1.379426180E+00 -3.232951906E+00 -2.853923987E+00  5.881469539E+00  3.753932232E+00  0.00000E+00  9.000E+00
      11     1     3     3     0     0 -2.423553056E+00 -1.449627778E+00 -7.272717712E-01  2.916154077E+00  5.110000000E-04  0.00000E+00  9.000E+00
     -11     1     3     3     0     0  1.044126876E+00 -1.783324128E+00 -2.126652216E+00  2.965315462E+00  5.110000000E-04  0.00000E+00  9.000E+00
      21     1     1     2   501   502  2.586733165E+00  4.571116824E+00 -7.889507744E-01  5.311190150E+00  5.575503985E-08  0.00000E+00  9.000E+00
       2     1     1     2   511     0 -1.207306985E+00 -1.338164917E+00  5.928918725E+00  6.196801817E+00  0.000000000E+00  0.00000E+00  9.000E+00
#rwgt            1           8   154492.31272791789                3    10249472           0
<weights>
0.11145E+08
0.11497E+08
0.10801E+08
0.11860E+08
0.10067E+08
0.10611E+08
0.11698E+08
0.11134E+08
0.11152E+08
0.10885E+08
0.10887E+08
0.11037E+08
0.10975E+08
0.10902E+08
0.10894E+08
0.11104E+08
0.11344E+08
0.11343E+08
0.11487E+08
0.11485E+08
0.11325E+08
0.11422E+08
0.11434E+08
0.11316E+08
0.11313E+08
0.11339E+08
0.11060E+08
0.11484E+08
0.11137E+08
0.11409E+08
0.11406E+08
0.11154E+08
0.11220E+08
0.11108E+08
0.11222E+08
0.11043E+08
0.11266E+08
0.11059E+08
0.11142E+08
0.11130E+08
0.11155E+08
0.11223E+08
0.11063E+08
0.11425E+08
0.10887E+08
</weights>
</event>
<event>
      7  10001  1.11453E+07  1.66332E+00 -1.00000E+00  3.91994E-01
      -5    -1     0     0     0   502  0.000000000E+00  0.000000000E+00  6.403369798E+00  6.403369798E+00  0.000000000E+00  0.00000E+00  9.000E+00
      -4    -1     0     0     0   501  0.000000000E+00  0.000000000E+00 -2.798480527E+00  2.798480527E+00  0.000000000E+00  0.00000E+00  9.000E+00
      23     2     1     2     0     0 -2.492916387E-01  1.944527990E+00 -5.201822871E-01  2.402263859E+00  1.287224383E+00  0.00000E+00  9.000E+00
      11     1     3     3     0     0  4.639268556E-01  3.328097899E-01 -2.480364116E-02  5.714945015E-01  5.110000000E-04  0.00000E+00  9.000E+00
     -11     1     3     3     0     0 -7.132184942E-01  1.611718200E+00 -4.953786460E-01  1.830769358E+00  5.110000000E-04  0.00000E+00  9.000E+00
      -5     1     1     2     0   501 -3.380915734E-02 -3.583575620E+00  3.537389597E+00  5.035502204E+00  0.000000000E+00  0.00000E+00  9.000E+00
      -4     1     1     2     0   502  2.831007960E-01  1.639047630E+00  5.876819618E-01  1.764084261E+00  0.000000000E+00  0.00000E+00  9.000E+00
#rwgt            2           4   35732.293038128460                3    10252784           0
<weights>
0.11145E+08
0.12327E+08
0.94982E+07
0.14982E+08
0.76104E+07
0.91702E+07
0.13910E+08
0.11210E+08
0.11077E+08
0.10819E+08
0.10819E+08
0.10947E+08
0.11027E+08
0.10840E+08
0.10829E+08
0.11227E+08
0.11210E+08
0.11468E+08
0.11472E+08
0.11470E+08
0.11443E+08
0.11493E+08
0.11520E+08
0.11318E+08
0.11384E+08
0.11355E+08
0.11083E+08
0.11448E+08
0.11335E+08
0.11465E+08
0.11505E+08
0.11178E+08
0.11219E+08
0.11133E+08
0.11179E+08
0.11257E+08
0.11050E+08
0.11085E+08
0.11112E+08
0.11161E+08
0.11133E+08
0.11171E+08
0.11118E+08
0.11503E+08
0.10815E+08
</weights>
</event>
<event>
      6  10001 -1.11453E+07  8.94427E-01 -1.00000E+00  3.00353E-01
      21    -1     0     0   502   501  0.000000000E+00  0.000000000E+00  7.264333325E-04  7.264333325E-04  0.000000000E+00  0.00000E+00  9.000E+00
       2    -1     0     0   501     0  0.000000000E+00  0.000000000E+00 -1.051380395E+03  1.051380395E+03  0.000000000E+00  0.00000E+00  9.000E+00
      23     2     1     2     0     0 -2.806366221E-01  4.136897799E-01 -6.187544024E+02  6.187555664E+02  1.091160486E+00  0.00000E+00  9.000E+00
      11     1     3     3     0     0 -2.746305662E-01 -2.602214449E-01 -9.835340554E+01  9.835413320E+01  5.110000000E-04  0.00000E+00  9.000E+00
     -11     1     3     3     0     0 -6.006055946E-03  6.739112247E-01 -5.204009968E+02  5.204014332E+02  5.110000000E-04  0.00000E+00  9.000E+00
       2     1     1     2   502     0  2.806366221E-01 -4.136897799E-01 -4.326252662E+02  4.326255550E+02  0.000000000E+00  0.00000E+00  9.000E+00
#rwgt            1          17  -23470862.733307499                3    10253320           0
<weights>
-.11145E+08
-.11472E+08
-.10734E+08
-.13943E+08
-.86004E+07
-.91702E+07
-.13910E+08
-.11141E+08
-.11149E+08
-.11165E+08
-.11130E+08
-.10896E+08
-.11422E+08
-.11151E+08
-.11143E+08
-.10596E+08
-.11972E+08
-.11613E+08
-.10520E+08
-.10409E+08
-.11685E+08
-.11139E+08
-.11148E+08
-.10862E+08
-.11410E+08
-.11790E+08
-.10768E+08
-.10446E+08
-.11986E+08
-.11044E+08
-.11217E+08
-.11293E+08
-.10994E+08
-.11901E+08
-.10271E+08
-.11019E+08
-.11263E+08
-.11102E+08
-.11204E+08
-.11364E+08
-.10954E+08
-.11106E+08
-.11186E+08
-.11141E+08
-.11150E+08
</weights>
</event>
<event>
      6  10001 -1.11453E+07  8.94427E-01 -1.00000E+00  3.10931E-01
      -1    -1     0     0     0   502  0.000000000E+00  0.000000000E+00  4.943260883E+02  4.943260883E+02  0.000000000E+00  0.00000E+00  9.000E+00
      21    -1     0     0   502   501  0.000000000E+00  0.000000000E+00 -4.979648331E-03  4.979648331E-03  0.000000000E+00  0.00000E+00  9.000E+00
      23     2     1     2     0     0 -1.724221741E-01  2.297172523E-01  4.895907292E+02  4.895919764E+02  1.067093238E+00  0.00000E+00  9.000E+00
      11     1     3     3     0     0 -3.387114541E-01  3.602889475E-01  1.027995860E+02  1.028007754E+02  5.110000000E-04  0.00000E+00  9.000E+00
     -11     1     3     3     0     0  1.662892800E-01 -1.305716952E-01  3.867911432E+02  3.867912010E+02  5.110000000E-04  0.00000E+00  9.000E+00
      -1     1     1     2     0   501  1.724221741E-01 -2.297172523E-01  4.730379368E+00  4.739091515E+00  0.000000000E+00  0.00000E+00  9.000E+00
#rwgt            1           9  -1004236.1171097249                3    10255934           0
<weights>
-.11145E+08
-.10924E+08
-.11283E+08
-.13283E+08
-.90406E+07
-.91665E+07
-.13909E+08
-.11179E+08
-.11112E+08
-.10839E+08
-.10838E+08
-.10968E+08
-.11020E+08
-.10860E+08
-.10847E+08
-.11223E+08
-.11198E+08
-.11439E+08
-.11475E+08
-.11464E+08
-.11417E+08
-.11472E+08
-.11496E+08
-.11375E+08
-.11328E+08
-.11282E+08
-.11301E+08
-.11410E+08
-.11350E+08
-.11447E+08
-.11485E+08
-.11175E+08
-.11216E+08
-.11140E+08
-.11173E+08
-.11215E+08
-.11093E+08
-.11101E+08
-.11115E+08
-.11159E+08
-.11134E+08
-.11181E+08
-.11108E+08
-.11481E+08
-.10835E+08
</weights>
</event>
<event>
      6  10001  1.11453E+07  8.94427E-01 -1.00000E+00  6.06875E-01
       4    -1     0     0   501     0  0.000000000E+00  0.000000000E+00  1.580694501E+01  1.580694501E+01  0.000000000E+00  0.00000E+00  9.000E+00
      21    -1     0     0   502   501  0.000000000E+00  0.000000000E+00 -3.418616229E-01  3.418616229E-01  0.000000000E+00  0.00000E+00  9.000E+00
      23     2     1     2     0     0  2.399144943E-01  1.799924221E-01  1.569704163E+01  1.576964853E+01  1.481466354E+00  0.00000E+00  9.000E+00
      11     1     3     3     0     0  4.245894829E-01  7.707399197E-01  1.019432461E+01  1.023223196E+01  5.110000000E-04  0.00000E+00  9.000E+00
     -11     1     3     3     0     0 -1.846749886E-01 -5.907474976E-01  5.502717018E+00  5.537416573E+00  5.110000000E-04  0.00000E+00  9.000E+00
       4     1     1     2   502     0 -2.399144943E-01 -1.799924221E-01 -2.319582468E-01  3.791581001E-01  0.000000000E+00  0.00000E+00  9.000E+00
#rwgt            1          28   1595523.2718220518                3    10257577           0
<weights>
0.11145E+08
0.11257E+08
0.12763E+08
0.71727E+07
0.13989E+08
0.13349E+08
0.74952E+07
0.11151E+08
0.11138E+08
0.10689E+08
0.10622E+08
0.10905E+08
0.10905E+08
0.10685E+08
0.10640E+08
0.11253E+08
0.11300E+08
0.11654E+08
0.11708E+08
0.11693E+08
0.11615E+08
0.11727E+08
0.11722E+08
0.11611E+08
0.11378E+08
0.11360E+08
0.11464E+08
0.11637E+08
0.11527E+08
0.11722E+08
0.11739E+08
0.11244E+08
0.11224E+08
0.11121E+08
0.11215E+08
0.11188E+08
0.11129E+08
0.11342E+08
0.10863E+08
0.11225E+08
0.11077E+08
0.11212E+08
0.11075E+08
0.11701E+08
0.10642E+08
</weights>
</event>
<event>
      6  10001 -1.11453E+07  8.94427E-01 -1.00000E+00  1.81490E-01
       2    -1     0     0   501     0  0.000000000E+00  0.000000000E+00  4.166231690E+01  4.166231690E+01  0.000000000E+00  0.00000E+00  9.000E+00
      -2    -1     0     0     0   502  0.000000000E+00  0.000000000E+00 -1.276863834E-02  1.276863834E-02  0.000000000E+00  0.00000E+00  9.000E+00
      23     2     1     2     0     0  2.190819998E-01 -1.813721285E-01  3.413386666E+01  3.415402426E+01  1.138256305E+00  0.00000E+00  9.000E+00
      11     1     3     3     0     0  9.080678392E-02 -5.624981435E-01  2.855460050E+01  2.856028466E+01  5.110000000E-04  0.00000E+00  9.000E+00
     -11     1     3     3     0     0  1.282752159E-01  3.811260150E-01  5.579266157E+00  5.593739597E+00  5.110000000E-04  0.00000E+00  9.000E+00
      21     1     1     2   501   502 -2.190819998E-01  1.813721285E-01  7.515681607E+00  7.521061280E+00  1.192092896E-07  0.00000E+00  9.000E+00
#rwgt            1          23  -770758.21668264840                3    10325921           0
<weights>
-.11145E+08
-.12913E+08
-.92236E+07
-.15701E+08
-.73907E+07
-.91665E+07
-.13909E+08
-.11158E+08
-.11138E+08
-.10821E+08
-.10809E+08
-.10962E+08
-.11003E+08
-.10838E+08
-.10820E+08
-.11224E+08
-.11216E+08
-.11468E+08
-.11503E+08
-.11491E+08
-.11444E+08
-.11506E+08
-.11524E+08
-.11411E+08
-.11328E+08
-.11293E+08
-.11316E+08
-.11441E+08
-.11371E+08
-.11485E+08
-.11518E+08
-.11183E+08
-.11219E+08
-.11137E+08
-.11179E+08
-.11199E+08
-.11112E+08
-.11137E+08
-.11079E+08
-.11167E+08
-.11127E+08
-.11187E+08
-.11102E+08
-.11509E+08
-.10811E+08
</weights>
</event>
<event>
      7  10001 -1.11453E+07  9.35481E-01 -1.00000E+00  5.89052E-01
      21    -1     0     0   502   511  0.000000000E+00  0.000000000E+00  3.752589459E+01  3.752589459E+01  0.000000000E+00  0.00000E+00  9.000E+00
      -1    -1     0     0     0   502  0.000000000E+00  0.000000000E+00 -1.601865785E+01  1.601865785E+01  0.000000000E+00  0.00000E+00  9.000E+00
      23     2     1     2     0     0  5.485993751E-01  1.549212678E-01 -1.464537402E+01  1.470147120E+01  1.149484082E+00  0.00000E+00  9.000E+00
      11     1     3     3     0     0 -2.364863084E-01 -7.975553522E-02 -8.255630830E+00  8.259402362E+00  5.110000000E-04  0.00000E+00  9.000E+00
     -11     1     3     3     0     0  7.850856835E-01  2.346768031E-01 -6.389743185E+00  6.442068842E+00  5.110000000E-04  0.00000E+00  9.000E+00
      -1     1     1     2     0   501  2.921062238E-01 -5.652120157E-01 -1.263833860E+00  1.414944060E+00  0.000000000E+00  0.00000E+00  9.000E+00
      21     1     1     2   501   511 -8.407055990E-01  4.102907479E-01  3.741644462E+01  3.742813718E+01  6.743495762E-07  0.00000E+00  9.000E+00
#rwgt            1          15  -161006.35133814736                3    10327063           0
<weights>
-.11145E+08
-.83262E+07
-.13004E+08
-.19027E+08
-.52992E+07
-.34863E+07
-.22635E+08
-.11248E+08
-.11047E+08
-.11100E+08
-.11184E+08
-.11046E+08
-.11250E+08
-.11165E+08
-.11186E+08
-.11202E+08
-.10996E+08
-.11093E+08
-.11077E+08
-.11078E+08
-.11095E+08
-.11076E+08
-.11089E+08
-.11034E+08
-.11202E+08
-.11095E+08
-.11133E+08
-.11049E+08
-.11108E+08
-.11031E+08
-.11089E+08
-.11122E+08
-.11150E+08
-.11158E+08
-.11121E+08
-.11398E+08
-.10892E+08
-.10866E+08
-.11482E+08
-.11060E+08
-.11225E+08
-.11104E+08
-.11189E+08
-.11122E+08
-.11150E+08
</weights>
</event>
<event>
      6  10001 -1.11453E+07  8.94427E-01 -1.00000E+00  1.90215E-01
      21    -1     0     0   502   501  0.000000000E+00  0.000000000E+00  2.786535263E-03  2.786535263E-03  0.000000000E+00  0.00000E+00  9.000E+00
      -1    -1     0     0     0   502  0.000000000E+00  0.000000000E+00 -2.395940665E+02  2.395940665E+02  0.000000000E+00  0.00000E+00  9.000E+00
      23     2     1     2     0     0  2.175734849E-01  1.796809359E-01 -2.208893987E+02  2.208928432E+02  1.200861078E+00  0.00000E+00  9.000E+00
      11     1     3     3     0     0 -4.885385167E-01  6.842914391E-02 -6.906975244E+01  6.907151406E+01  5.110000000E-04  0.00000E+00  9.000E+00
     -11     1     3     3     0     0  7.061120016E-01  1.112517920E-01 -1.518196463E+02  1.518213291E+02  5.110000000E-04  0.00000E+00  9.000E+00
      -1     1     1     2     0   501 -2.175734849E-01 -1.796809359E-01 -1.870188120E+01  1.870400984E+01  0.000000000E+00  0.00000E+00  9.000E+00
#rwgt            1          15  -744046.35200903355                3    10337041           0
<weights>
-.11145E+08
-.11929E+08
-.10372E+08
-.14499E+08
-.83106E+07
-.91702E+07
-.13910E+08
-.11038E+08
-.11245E+08
-.11289E+08
-.11282E+08
-.11133E+08
-.11195E+08
-.11272E+08
-.11282E+08
-.11029E+08
-.11219E+08
-.11091E+08
-.10933E+08
-.10907E+08
-.11111E+08
-.10996E+08
-.11026E+08
-.11105E+08
-.11039E+08
-.11023E+08
-.11169E+08
-.11002E+08
-.10981E+08
-.11025E+08
-.11030E+08
-.11271E+08
-.10972E+08
-.11355E+08
-.10940E+08
-.11246E+08
-.11029E+08
-.11360E+08
-.10915E+08
-.11161E+08
-.11109E+08
-.11362E+08
-.10913E+08
-.10989E+08
-.11293E+08
</weights>
</event>
<event>
      7  10001  1.11453E+07  3.72388E+00 -1.00000E+00  2.67614E-01
      -4    -1     0     0     0   502  0.000000000E+00  0.000000000E+00  6.461174333E+00  6.461174333E+00  0.000000000E+00  0.00000E+00  9.000E+00
      21    -1     0     0   502   501  0.000000000E+00  0.000000000E+00 -1.171320033E+01  1.171320033E+01  0.000000000E+00  0.00000E+00  9.000E+00
      23     2     1     2     0     0  2.885893920E-01  5.051861280E-01  5.904991834E+00  6.772222892E+00  3.264288204E+00  0.00000E+00  9.000E+00
      11     1     3     3     0     0 -9.427976531E-01 -9.855316551E-01  2.798287877E+00  3.112965686E+00  5.110000000E-04  0.00000E+00  9.000E+00
     -11     1     3     3     0     0  1.231387045E+00  1.490717783E+00  3.106703958E+00  3.659257207E+00  5.110000000E-04  0.00000E+00  9.000E+00
      -4     1     1     2     0   511  7.739005264E-01  4.061613552E-01 -2.955052983E+00  3.081594912E+00  0.000000000E+00  0.00000E+00  9.000E+00
      21     1     1     2   511   501 -1.062489918E+00 -9.113474832E-01 -8.201964851E+00  8.320556861E+00  3.153981341E-07  0.00000E+00  9.000E+00
#rwgt            1           3   21332372.768379420                3    10337272           0
<weights>
0.11145E+08
0.12389E+08
0.95905E+07
0.13153E+08
0.90083E+07
0.10501E+08
0.11867E+08
0.11232E+08
0.11054E+08
0.10752E+08
0.10768E+08
0.10918E+08
0.10996E+08
0.10778E+08
0.10775E+08
0.11241E+08
0.11221E+08
0.11517E+08
0.11544E+08
0.11541E+08
0.11487E+08
0.11544E+08
0.11601E+08
0.11325E+08
0.11454E+08
0.11400E+08
0.11055E+08
0.11490E+08
0.11363E+08
0.11506E+08
0.11563E+08
0.11174E+08
0.11240E+08
0.11137E+08
0.11177E+08
0.11285E+08
0.11026E+08
0.11019E+08
0.11131E+08
0.11166E+08
0.11128E+08
0.11179E+08
0.11110E+08
0.11566E+08
0.10757E+08
</weights>
</event>
<event>
      6  10001 -1.11453E+07  8.94427E-01 -1.00000E+00  3.52626E-01
      21    -1     0     0   502   501  0.000000000E+00  0.000000000E+00  6.679268827E-03  6.679268827E-03  0.000000000E+00  0.00000E+00  9.000E+00
       1    -1     0     0   501     0  0.000000000E+00  0.000000000E+00 -6.194289234E+02  6.194289234E+02  0.000000000E+00  0.00000E+00  9.000E+00
      23     2     1     2     0     0 -2.110723503E-01 -5.609862880E-01 -5.989085204E+02  5.989131243E+02  2.270548797E+00  0.00000E+00  9.000E+00
      11     1     3     3     0     0 -3.602727488E-01 -1.075607326E+00 -5.572956434E+02  5.572967978E+02  5.110000000E-04  0.00000E+00  9.000E+00
     -11     1     3     3     0     0  1.492003986E-01  5.146210378E-01 -4.161287699E+01  4.161632645E+01  5.110000000E-04  0.00000E+00  9.000E+00
       1     1     1     2   502     0  2.110723503E-01  5.609862880E-01 -2.051372379E+01  2.052247843E+01  0.000000000E+00  0.00000E+00  9.000E+00
#rwgt            1          16  -10878624.126667144                3    10431591           0
<weights>
-.11145E+08
-.10888E+08
-.11418E+08
-.13233E+08
-.91484E+07
-.91702E+07
-.13910E+08
-.11362E+08
-.10944E+08
-.11017E+08
-.11406E+08
-.12422E+08
-.98918E+07
-.11163E+08
-.11174E+08
-.10429E+08
-.11868E+08
-.97357E+07
-.13041E+08
-.13408E+08
-.95255E+07
-.11237E+08
-.10975E+08
-.11777E+08
-.10442E+08
-.10026E+08
-.11851E+08
-.13014E+08
-.91373E+07
-.11425E+08
-.10903E+08
-.10890E+08
-.11403E+08
-.97280E+07
-.12821E+08
-.11133E+08
-.11157E+08
-.11113E+08
-.11205E+08
-.11406E+08
-.10913E+08
-.11127E+08
-.11163E+08
-.11115E+08
-.11177E+08
</weights>
</event>
<event>
      7  10001  1.11453E+07  9.62713E-01 -1.00000E+00  5.77495E-01
      21    -1     0     0   502   501  0.000000000E+00  0.000000000E+00  9.011581992E+00  9.011581992E+00  0.000000000E+00  0.00000E+00  9.000E+00
      -2    -1     0     0     0   502  0.000000000E+00  0.000000000E+00 -1.904188694E-01  1.904188694E-01  0.000000000E+00  0.00000E+00  9.000E+00
      23     2     1     2     0     0  2.739980375E-01  3.279223916E-03  1.320402296E+00  1.685817417E+00  1.011648388E+00  0.00000E+00  9.000E+00
      11     1     3     3     0     0  5.707509640E-01  2.423534257E-01  5.611149257E-01  8.362667438E-01  5.110000000E-04  0.00000E+00  9.000E+00
     -11     1     3     3     0     0 -2.967529265E-01 -2.390742018E-01  7.592873706E-01  8.495506728E-01  5.110000000E-04  0.00000E+00  9.000E+00
      -2     1     1     2     0   511  1.133619216E-02  1.226992115E-01  9.440212016E-01  9.520292195E-01  0.000000000E+00  0.00000E+00  9.000E+00
      21     1     1     2   511   501 -2.853342297E-01 -1.259784354E-01  6.556739625E+00  6.564154225E+00  0.000000000E+00  0.00000E+00  9.000E+00
#rwgt            1          14   689917.20286506379                3    10432157           0
<weights>
0.11145E+08
0.15021E+08
0.75762E+07
0.11970E+08
0.97909E+07
0.13234E+08
0.76720E+07
0.10693E+08
0.11716E+08
0.10767E+08
0.10678E+08
0.10973E+08
0.10879E+08
0.10758E+08
0.10699E+08
0.11150E+08
0.11406E+08
0.11608E+08
0.11596E+08
0.11565E+08
0.11587E+08
0.11661E+08
0.11624E+08
0.11653E+08
0.11235E+08
0.11405E+08
0.11329E+08
0.11621E+08
0.11385E+08
0.11667E+08
0.11641E+08
0.11163E+08
0.11285E+08
0.11136E+08
0.11202E+08
0.10831E+08
0.11524E+08
0.11315E+08
0.10910E+08
0.11199E+08
0.11094E+08
0.11258E+08
0.11026E+08
0.11621E+08
0.10715E+08
</weights>
</event>
<event>
      7  10001  1.11453E+07  1.47137E+00 -1.00000E+00  4.32996E-01
      21    -1     0     0   502   501  0.000000000E+00  0.000000000E+00  2.637043768E+01  2.637043768E+01  0.000000000E+00  0.00000E+00  9.000E+00
       3    -1     0     0   512     0  0.000000000E+00  0.000000000E+00 -5.393481301E-01  5.393481301E-01  0.000000000E+00  0.00000E+00  9.000E+00
      23     2     1     2     0     0  2.163344254E+00  1.898145431E+00  1.435610103E+01  1.499520456E+01  3.236589036E+00  0.00000E+00  9.000E+00
      11     1     3     3     0     0  5.890033111E-01  1.754532887E+00  2.967026124E+00  3.496935063E+00  5.110000000E-04  0.00000E+00  9.000E+00
     -11     1     3     3     0     0  1.574340943E+00  1.436125449E-01  1.138907491E+01  1.149826950E+01  5.110000000E-04  0.00000E+00  9.000E+00
       3     1     1     2   502     0 -7.615946297E-01 -1.450894190E+00  7.476527411E+00  7.653991276E+00  0.000000000E+00  0.00000E+00  9.000E+00
      21     1     1     2   512   501 -1.401749625E+00 -4.472512414E-01  3.998461109E+00  4.260589974E+00  7.300048300E-08  0.00000E+00  9.000E+00
#rwgt            1          18   111665.57654441521                3    10452265           0
<weights>
0.11145E+08
0.12680E+08
0.96175E+07
0.12282E+08
0.97320E+07
0.11279E+08
0.10673E+08
0.11178E+08
0.11108E+08
0.10779E+08
0.10763E+08
0.10998E+08
0.10917E+08
0.10791E+08
0.10773E+08
0.11208E+08
0.11215E+08
0.11298E+08
0.12098E+08
0.11959E+08
0.11300E+08
0.11549E+08
0.11613E+08
0.12455E+08
0.10954E+08
0.10745E+08
0.15115E+08
0.11307E+08
0.11723E+08
0.11534E+08
0.11602E+08
0.11234E+08
0.11188E+08
0.11142E+08
0.11180E+08
0.11219E+08
0.11091E+08
0.11218E+08
0.10995E+08
0.11193E+08
0.11103E+08
0.11208E+08
0.11080E+08
0.11564E+08
0.10763E+08
</weights>
</event>
<event>
      7  10001  1.11453E+07  6.24829E+00 -1.00000E+00  2.21744E-01
      21    -1     0     0   502   501  0.000000000E+00  0.000000000E+00  3.417577190E+00  3.417577190E+00  0.000000000E+00  0.00000E+00  9.000E+00
      -1    -1     0     0     0   502  0.000000000E+00  0.000000000E+00 -1.158250181E+01  1.158250181E+01  0.000000000E+00  0.00000E+00  9.000E+00
      23     2     1     2     0     0 -3.593034957E-01 -4.620588634E-01 -1.121690954E+01  1.151458798E+01  2.534576757E+00  0.00000E+00  9.000E+00
      11     1     3     3     0     0 -4.983002715E-01 -1.484874916E+00 -6.496761830E+00  6.682893925E+00  5.110000000E-04  0.00000E+00  9.000E+00
     -11     1     3     3     0     0  1.389967758E-01  1.022816053E+00 -4.720147709E+00  4.831694054E+00  5.110000000E-04  0.00000E+00  9.000E+00
      -1     1     1     2     0   511 -1.975252208E-01  2.643848672E-01 -4.461126925E-02  3.330251285E-01  0.000000000E+00  0.00000E+00  9.000E+00
      21     1     1     2   511   501  5.568287165E-01  1.976739962E-01  3.096596190E+00  3.152465890E+00  5.092623082E-07  0.00000E+00  9.000E+00
#rwgt            2         163   266221.19665858656                3    10461422           0
<weights>
0.11145E+08
0.10892E+08
0.11213E+08
0.13237E+08
0.89847E+07
0.91702E+07
0.13910E+08
0.11180E+08
0.11107E+08
0.10886E+08
0.10911E+08
0.10998E+08
0.11025E+08
0.10915E+08
0.10916E+08
0.11142E+08
0.11264E+08
0.11388E+08
0.11364E+08
0.11347E+08
0.11380E+08
0.11383E+08
0.11424E+08
0.11279E+08
0.11317E+08
0.11369E+08
0.11031E+08
0.11373E+08
0.11196E+08
0.11352E+08
0.11388E+08
0.11110E+08
0.11254E+08
0.11192E+08
0.11114E+08
0.11063E+08
0.11241E+08
0.10982E+08
0.11228E+08
0.11136E+08
0.11149E+08
0.11220E+08
0.11066E+08
0.11405E+08
0.10902E+08
</weights>
</event>
<event>
      7  10001  1.11453E+07  1.33879E+01 -1.00000E+00  1.81849E-01
      21    -1     0     0   502   501  0.000000000E+00  0.000000000E+00  2.478590683E-01  2.478590683E-01  0.000000000E+00  0.00000E+00  9.000E+00
       2    -1     0     0   501     0  0.000000000E+00  0.000000000E+00 -4.608293341E+02  4.608293341E+02  0.000000000E+00  0.00000E+00  9.000E+00
      23     2     1     2     0     0  2.928565987E+00 -2.667264155E+00 -2.842123684E+02  2.842467266E+02  1.959712946E+00  0.00000E+00  9.000E+00
      11     1     3     3     0     0  5.148475560E-01 -4.169948489E-01 -1.556857357E+01  1.558266460E+01  5.110000000E-04  0.00000E+00  9.000E+00
     -11     1     3     3     0     0  2.413718431E+00 -2.250269306E+00 -2.686437948E+02  2.686640620E+02  5.110000000E-04  0.00000E+00  9.000E+00
       2     1     1     2   512     0 -1.279079960E+00  6.147709219E+00 -1.543052821E+02  1.544329967E+02  0.000000000E+00  0.00000E+00  9.000E+00
      21     1     1     2   502   512 -1.649486027E+00 -3.480445064E+00 -2.206382446E+01  2.239746977E+01  8.596304120E-07  0.00000E+00  9.000E+00
#rwgt            2         189   3529210.4383940413                3    10464352           0
<weights>
0.11145E+08
0.10296E+08
0.11988E+08
0.12513E+08
0.96057E+07
0.91702E+07
0.13910E+08
0.11130E+08
0.11160E+08
0.11165E+08
0.11151E+08
0.10988E+08
0.11324E+08
0.11157E+08
0.11153E+08
0.11283E+08
0.10936E+08
0.11466E+08
0.10688E+08
0.10624E+08
0.11504E+08
0.11108E+08
0.11171E+08
0.11047E+08
0.11204E+08
0.11340E+08
0.11022E+08
0.10754E+08
0.11573E+08
0.11068E+08
0.11188E+08
0.11026E+08
0.11262E+08
0.11510E+08
0.10697E+08
0.11098E+08
0.11188E+08
0.11148E+08
0.11149E+08
0.11252E+08
0.11049E+08
0.11134E+08
0.11156E+08
0.11132E+08
0.11159E+08
</weights>
</event>
<event>
      6  10001 -1.11453E+07  8.94427E-01 -1.00000E+00  1.78404E-01
      -4    -1     0     0     0   502  0.000000000E+00  0.000000000E+00  2.514528424E+01  2.514528424E+01  0.000000000E+00  0.00000E+00  9.000E+00
      21    -1     0     0   502   501  0.000000000E+00  0.000000000E+00 -2.498199711E-02  2.498199711E-02  0.000000000E+00  0.00000E+00  9.000E+00
      23     2     1     2     0     0 -2.536690247E-01 -2.627075158E-01  2.234165675E+01  2.236772560E+01  1.015952384E+00  0.00000E+00  9.000E+00
      11     1     3     3     0     0  6.436715019E-02  7.860966224E-02  2.334990013E-01  2.546461343E-01  5.110000000E-04  0.00000E+00  9.000E+00
     -11     1     3     3     0     0 -3.180361749E-01 -3.413171780E-01  2.210815775E+01  2.211307947E+01  5.110000000E-04  0.00000E+00  9.000E+00
      -4     1     1     2     0   501  2.536690247E-01  2.627075158E-01  2.778645495E+00  2.802540633E+00  0.000000000E+00  0.00000E+00  9.000E+00
#rwgt            1           3  -30620143.681641381                3    10464641           0
<weights>
-.11145E+08
-.13330E+08
-.88316E+07
-.16224E+08
-.70770E+07
-.91573E+07
-.13908E+08
-.11165E+08
-.11127E+08
-.10814E+08
-.10799E+08
-.10959E+08
-.10998E+08
-.10830E+08
-.10811E+08
-.11227E+08
-.11219E+08
-.11475E+08
-.11522E+08
-.11509E+08
-.11450E+08
-.11518E+08
-.11535E+08
-.11436E+08
-.11328E+08
-.11289E+08
-.11398E+08
-.11449E+08
-.11385E+08
-.11497E+08
-.11530E+08
-.11188E+08
-.11218E+08
-.11137E+08
-.11180E+08
-.11203E+08
-.11108E+08
-.11150E+08
-.11066E+08
-.11171E+08
-.11124E+08
-.11188E+08
-.11101E+08
-.11519E+08
-.10802E+08
</weights>
</event>
<event>
      7  10001  1.11453E+07  2.54202E+00 -1.00000E+00  3.14577E-01
      -2    -1     0     0     0   501  0.000000000E+00  0.000000000E+00  1.267762585E+00  1.267762585E+00  0.000000000E+00  0.00000E+00  9.000E+00
       3    -1     0     0   501     0  0.000000000E+00  0.000000000E+00 -4.468132448E+01  4.468132448E+01  0.000000000E+00  0.00000E+00  9.000E+00
      23     2     1     2     0     0  1.224694798E+00 -1.662097797E+00 -2.620245564E+00  3.494074988E+00  1.039435793E+00  0.00000E+00  9.000E+00
      11     1     3     3     0     0  1.009575525E+00 -7.629595102E-01 -9.403434465E-01  1.576577310E+00  5.110000000E-04  0.00000E+00  9.000E+00
     -11     1     3     3     0     0  2.151192737E-01 -8.991382865E-01 -1.679902118E+00  1.917497678E+00  5.110000000E-04  0.00000E+00  9.000E+00
       3     1     1     2   502     0 -4.892259536E-01  4.095398990E+00 -3.928141835E+01  3.949736020E+01  0.000000000E+00  0.00000E+00  9.000E+00
      -2     1     1     2     0   502 -7.354688448E-01 -2.433301193E+00 -1.511897974E+00  2.957651873E+00  0.000000000E+00  0.00000E+00  9.000E+00
#rwgt            2         115   80258.898091321709                3    10467434           0
<weights>
0.11145E+08
0.10703E+08
0.11526E+08
0.13008E+08
0.92350E+07
0.91702E+07
0.13910E+08
0.11184E+08
0.11106E+08
0.10962E+08
0.11112E+08
0.11258E+08
0.10869E+08
0.11057E+08
0.11061E+08
0.11983E+08
0.99940E+07
0.11368E+08
0.10962E+08
0.11010E+08
0.11287E+08
0.11175E+08
0.11277E+08
0.10833E+08
0.11365E+08
0.10023E+08
0.11499E+08
0.10476E+08
0.12036E+08
0.11095E+08
0.11271E+08
0.11190E+08
0.11122E+08
0.11217E+08
0.11081E+08
0.11258E+08
0.11042E+08
0.10905E+08
0.11393E+08
0.11109E+08
0.11170E+08
0.11229E+08
0.11055E+08
0.11245E+08
0.11041E+08
</weights>
</event>
<event>
      7  10001  1.11453E+07  1.36131E+00 -1.00000E+00  4.56374E-01
      -2    -1     0     0     0   502  0.000000000E+00  0.000000000E+00  2.371827374E-01  2.371827374E-01  0.000000000E+00  0.00000E+00  9.000E+00
       1    -1     0     0   502     0  0.000000000E+00  0.000000000E+00 -1.037944526E+02  1.037944526E+02  0.000000000E+00  0.00000E+00  9.000E+00
      23     2     1     2     0     0  2.395132221E-01  9.968600950E-01 -2.446737427E+00  2.881125960E+00  1.123951124E+00  0.00000E+00  9.000E+00
      11     1     3     3     0     0  1.033020777E-02  4.774055773E-01 -2.218322950E+00  2.269136349E+00  5.110000000E-04  0.00000E+00  9.000E+00
     -11     1     3     3     0     0  2.291830144E-01  5.194545177E-01 -2.284144776E-01  6.119896116E-01  5.110000000E-04  0.00000E+00  9.000E+00
      -2     1     1     2     0   501  1.015258610E+00 -4.689375755E-01 -2.212363793E+01  2.215188497E+01  0.000000000E+00  0.00000E+00  9.000E+00
       1     1     1     2   501     0 -1.254771833E+00 -5.279225195E-01 -7.898689452E+01  7.899862442E+01  0.000000000E+00  0.00000E+00  9.000E+00
#rwgt            1           7   1630327.8746798448                3    10470117           0
<weights>
0.11145E+08
0.12380E+08
0.98015E+07
0.12419E+08
0.96344E+07
0.10977E+08
0.11136E+08
0.11274E+08
0.11014E+08
0.10681E+08
0.10750E+08
0.10888E+08
0.10980E+08
0.10729E+08
0.10746E+08
0.11243E+08
0.11220E+08
0.11533E+08
0.11593E+08
0.11589E+08
0.11503E+08
0.11557E+08
0.11657E+08
0.11286E+08
0.11545E+08
0.11461E+08
0.11004E+08
0.11502E+08
0.11351E+08
0.11494E+08
0.11582E+08
0.11141E+08
0.11280E+08
0.11156E+08
0.11154E+08
0.11340E+08
0.10976E+08
0.10850E+08
0.11290E+08
0.11155E+08
0.11137E+08
0.11178E+08
0.11112E+08
0.11606E+08
0.10715E+08
</weights>
</event>
<event>
      6  10001 -1.11453E+07  8.94427E-01 -1.00000E+00  5.98534E-01
      21    -1     0     0   502   501  0.000000000E+00  0.000000000E+00  1.409822989E-02  1.409822989E-02  0.000000000E+00  0.00000E+00  9.000E+00
       2    -1     0     0   501     0  0.000000000E+00  0.000000000E+00 -5.004451675E+01  5.004451675E+01  0.000000000E+00  0.00000E+00  9.000E+00
      23     2     1     2     0     0 -2.914789879E-01  3.431868574E-01 -4.164071285E+01  4.165683550E+01  1.067820158E+00  0.00000E+00  9.000E+00
      11     1     3     3     0     0 -1.180200591E-01 -3.801740031E-01 -1.808407511E+01  1.808845582E+01  5.110000000E-04  0.00000E+00  9.000E+00
     -11     1     3     3     0     0 -1.734589288E-01  7.233608605E-01 -2.355663774E+01  2.356837968E+01  5.110000000E-04  0.00000E+00  9.000E+00
       2     1     1     2   502     0  2.914789879E-01 -3.431868574E-01 -8.389705673E+00  8.401779484E+00  0.000000000E+00  0.00000E+00  9.000E+00
#rwgt            1          17  -8828498.3828249834                3    10508807           0
<weights>
-.11145E+08
-.12947E+08
-.92202E+07
-.15735E+08
-.73877E+07
-.91702E+07
-.13910E+08
-.11186E+08
-.11105E+08
-.11077E+08
-.11117E+08
-.11150E+08
-.11061E+08
-.11109E+08
-.11116E+08
-.11105E+08
-.11188E+08
-.11076E+08
-.11295E+08
-.11306E+08
-.11066E+08
-.11173E+08
-.11168E+08
-.11236E+08
-.11098E+08
-.11112E+08
-.11157E+08
-.11309E+08
-.10932E+08
-.11172E+08
-.11151E+08
-.11143E+08
-.11154E+08
-.11067E+08
-.11252E+08
-.11122E+08
-.11167E+08
-.11033E+08
-.11264E+08
-.11079E+08
-.11199E+08
-.11207E+08
-.11080E+08
-.11185E+08
-.11102E+08
</weights>
</event>
<event>
      7  10001  1.11453E+07  3.52094E+00 -1.00000E+00  2.73608E-01
       2    -1     0     0   501     0  0.000000000E+00  0.000000000E+00  4.402637643E+02  4.402637643E+02  0.000000000E+00  0.00000E+00  9.000E+00
      21    -1     0     0   511   501  0.000000000E+00  0.000000000E+00 -7.350373816E+01  7.350373816E+01  0.000000000E+00  0.00000E+00  9.000E+00
      23     2     1     2     0     0 -2.745406783E-01  2.105011552E+00  2.323376222E+02  2.323537784E+02  1.732390242E+00  0.00000E+00  9.000E+00
      11     1     3     3     0     0 -8.272533720E-01  1.315237207E+00  9.438491668E+01  9.439770492E+01  5.110000000E-04  0.00000E+00  9.000E+00
     -11     1     3     3     0     0  5.527126937E-01  7.897743453E-01  1.379527056E+02  1.379560735E+02  5.110000000E-04  0.00000E+00  9.000E+00
       2     1     1     2   502     0  3.382439889E+00 -3.759701483E+00  2.078451181E+02  2.079066361E+02  0.000000000E+00  0.00000E+00  9.000E+00
      21     1     1     2   511   502 -3.107899210E+00  1.654689931E+00 -7.342271411E+01  7.350708798E+01  1.348699152E-06  0.00000E+00  9.000E+00
#rwgt            1          24   6029602.3482162682                3    10510260           0
<weights>
0.11145E+08
0.11861E+08
0.10359E+08
0.11943E+08
0.99830E+07
0.10877E+08
0.11290E+08
0.11143E+08
0.11152E+08
0.10775E+08
0.10737E+08
0.10943E+08
0.10965E+08
0.10782E+08
0.10752E+08
0.11231E+08
0.11255E+08
0.11533E+08
0.11599E+08
0.11580E+08
0.11506E+08
0.11591E+08
0.11598E+08
0.11530E+08
0.11331E+08
0.11311E+08
0.11538E+08
0.11515E+08
0.11437E+08
0.11578E+08
0.11603E+08
0.11209E+08
0.11219E+08
0.11130E+08
0.11194E+08
0.11187E+08
0.11127E+08
0.11229E+08
0.10982E+08
0.11191E+08
0.11106E+08
0.11197E+08
0.11091E+08
0.11581E+08
0.10748E+08
</weights>
</event>
<event>
      6  10001 -1.11453E+07  8.94427E-01 -1.00000E+00  1.65201E-01
      21    -1     0     0   502   501  0.000000000E+00  0.000000000E+00  7.400765824E-03  7.400765824E-03  0.000000000E+00  0.00000E+00  9.000E+00
       4    -1     0     0   501     0  0.000000000E+00  0.000000000E+00 -8.065845746E+01  8.065845746E+01  0.000000000E+00  0.00000E+00  9.000E+00
      23     2     1     2     0     0  2.220062089E-01 -1.174290424E-01 -4.901498023E+01  4.902878488E+01  1.135950157E+00  0.00000E+00  9.000E+00
      11     1     3     3     0     0  3.297617376E-02  1.346307203E-01 -4.537035962E+01  4.537057136E+01  5.110000000E-04  0.00000E+00  9.000E+00
     -11     1     3     3     0     0  1.890300352E-01 -2.520597627E-01 -3.644620612E+00  3.658213518E+00  5.110000000E-04  0.00000E+00  9.000E+00
       4     1     1     2   502     0 -2.220062089E-01  1.174290424E-01 -3.163607646E+01  3.163707335E+01  0.000000000E+00  0.00000E+00  9.000E+00
#rwgt            1          19  -107946.58223364380                3    10539993           0
<weights>
-.11145E+08
-.17841E+08
-.29962E+07
-.21684E+08
-.24007E+07
-.91702E+07
-.13910E+08
-.11186E+08
-.11104E+08
-.11110E+08
-.11166E+08
-.11016E+08
-.11287E+08
-.11189E+08
-.11186E+08
-.11157E+08
-.11051E+08
-.11098E+08
-.11035E+08
-.11029E+08
-.11108E+08
-.11084E+08
-.11041E+08
-.11112E+08
-.11098E+08
-.11115E+08
-.11138E+08
-.11093E+08
-.11052E+08
-.11040E+08
-.11076E+08
-.11092E+08
-.11180E+08
-.11160E+08
-.11123E+08
-.11253E+08
-.11044E+08
-.10848E+08
-.11514E+08
-.11013E+08
-.11268E+08
-.11090E+08
-.11204E+08
-.11119E+08
-.11149E+08
</weights>
</event>
<event>
      7  10001  1.11453E+07  1.71916E+00 -1.00000E+00  3.84571E-01
      -3    -1     0     0     0   502  0.000000000E+00  0.000000000E+00  2.158260131E-01  2.158260131E-01  0.000000000E+00  0.00000E+00  9.000E+00
      21    -1     0     0   511   501  0.000000000E+00  0.000000000E+00 -2.486192421E+02  2.486192421E+02  0.000000000E+00  0.00000E+00  9.000E+00
      23     2     1     2     0     0 -6.059887851E-01  3.068675044E-01 -4.510477679E+00  4.886857847E+00  1.753733347E+00  0.00000E+00  9.000E+00
      11     1     3     3     0     0 -4.846731334E-01  8.115398933E-01 -1.159767618E+00  1.496183890E+00  5.110000000E-04  0.00000E+00  9.000E+00
     -11     1     3     3     0     0 -1.213156517E-01 -5.046723889E-01 -3.350710062E+00  3.390673957E+00  5.110000000E-04  0.00000E+00  9.000E+00
      -3     1     1     2     0   501  6.642719927E-01  1.411303085E+00 -2.504851605E+01  2.509703548E+01  0.000000000E+00  0.00000E+00  9.000E+00
      21     1     1     2   511   502 -5.828320763E-02 -1.718170590E+00 -2.188444224E+02  2.188511748E+02  3.814697266E-06  0.00000E+00  9.000E+00
#rwgt            1           5   303932.89925548126                3    10541233           0
<weights>
0.11145E+08
0.12530E+08
0.96016E+07
0.12833E+08
0.92690E+07
0.10798E+08
0.11411E+08
0.11272E+08
0.11018E+08
0.10724E+08
0.10804E+08
0.10903E+08
0.11012E+08
0.10776E+08
0.10799E+08
0.11231E+08
0.11199E+08
0.11477E+08
0.11536E+08
0.11531E+08
0.11452E+08
0.11494E+08
0.11594E+08
0.11254E+08
0.11509E+08
0.11428E+08
0.11015E+08
0.11446E+08
0.11310E+08
0.11429E+08
0.11519E+08
0.11124E+08
0.11278E+08
0.11161E+08
0.11144E+08
0.11339E+08
0.10976E+08
0.10818E+08
0.11354E+08
0.11139E+08
0.11152E+08
0.11169E+08
0.11121E+08
0.11549E+08
0.10766E+08
</weights>
</event>
<event>
      6  10001 -1.11453E+07  8.94427E-01 -1.00000E+00  3.53971E-01
      21    -1     0     0   502   501  0.000000000E+00  0.000000000E+00  5.800508570E-03  5.800508570E-03  0.000000000E+00  0.00000E+00  9.000E+00
       2    -1     0     0   501     0  0.000000000E+00  0.000000000E+00 -3.898864570E+02  3.898864570E+02  0.000000000E+00  0.00000E+00  9.000E+00
      23     2     1     2     0     0  6.103068069E-01 -9.950315927E-01 -2.372393447E+02  2.372464825E+02  1.422751952E+00  0.00000E+00  9.000E+00
      11     1     3     3     0     0  6.397018437E-01 -3.148435586E-01 -1.976369990E+02  1.976382851E+02  5.110000000E-04  0.00000E+00  9.000E+00
     -11     1     3     3     0     0 -2.939503674E-02 -6.801880342E-01 -3.960234573E+01  3.960819747E+01  5.110000000E-04  0.00000E+00  9.000E+00
       2     1     1     2   502     0 -6.103068069E-01  9.950315927E-01 -1.526413117E+02  1.526457750E+02  0.000000000E+00  0.00000E+00  9.000E+00
#rwgt            1          17  -8405205.0883242954                3    10549021           0
<weights>
-.11145E+08
-.12141E+08
-.99673E+07
-.14756E+08
-.79863E+07
-.91702E+07
-.13910E+08
-.11128E+08
-.11162E+08
-.11167E+08
-.11156E+08
-.11015E+08
-.11296E+08
-.11160E+08
-.11157E+08
-.11323E+08
-.10878E+08
-.11413E+08
-.10749E+08
-.10696E+08
-.11443E+08
-.11106E+08
-.11166E+08
-.11084E+08
-.11163E+08
-.11277E+08
-.11059E+08
-.10823E+08
-.11480E+08
-.11077E+08
-.11176E+08
-.11021E+08
-.11266E+08
-.11434E+08
-.10784E+08
-.11111E+08
-.11176E+08
-.11157E+08
-.11138E+08
-.11229E+08
-.11069E+08
-.11141E+08
-.11149E+08
-.11128E+08
-.11162E+08
</weights>
</event>
<event>
      6  10001  1.11453E+07  8.94427E-01 -1.00000E+00  5.99090E-01
       1    -1     0     0   501     0  0.000000000E+00  0.000000000E+00  2.738731918E-02  2.738731918E-02  0.000000000E+00  0.00000E+00  9.000E+00
      -1    -1     0     0     0   502  0.000000000E+00  0.000000000E+00 -1.921008064E+02  1.921008064E+02  0.000000000E+00  0.00000E+00  9.000E+00
      23     2     1     2     0     0 -3.902540212E-01 -2.922025815E-01 -6.397994687E+01  6.403379375E+01  2.579817808E+00  0.00000E+00  9.000E+00
      11     1     3     3     0     0 -1.140104193E+00 -1.037639389E+00 -4.229431396E+01  4.232239982E+01  5.110000000E-04  0.00000E+00  9.000E+00
     -11     1     3     3     0     0  7.498501721E-01  7.454368079E-01 -2.168563291E+01  2.171139393E+01  5.110000000E-04  0.00000E+00  9.000E+00
      21     1     1     2   501   502  3.902540212E-01  2.922025815E-01 -1.280934722E+02  1.280944000E+02  2.697398305E-06  0.00000E+00  9.000E+00
#rwgt            1          21   99645.137381011882                3    10549422           0
<weights>
0.11145E+08
0.12133E+08
0.10133E+08
0.12053E+08
0.99796E+07
0.11033E+08
0.11051E+08
0.11124E+08
0.11161E+08
0.11195E+08
0.11234E+08
0.11113E+08
0.11137E+08
0.11230E+08
0.11230E+08
0.11028E+08
0.11224E+08
0.11141E+08
0.10947E+08
0.10914E+08
0.11162E+08
0.11046E+08
0.11050E+08
0.11129E+08
0.11062E+08
0.11081E+08
0.11138E+08
0.11043E+08
0.10974E+08
0.11050E+08
0.11069E+08
0.11201E+08
0.11056E+08
0.11368E+08
0.10926E+08
0.11131E+08
0.11130E+08
0.11193E+08
0.11093E+08
0.11145E+08
0.11122E+08
0.11375E+08
0.10899E+08
0.11051E+08
0.11226E+08
</weights>
</event>
<event>
      6  10001  1.11453E+07  8.94427E-01 -1.00000E+00  6.01729E-01
      21    -1     0     0   502   501  0.000000000E+00  0.000000000E+00  1.295676531E+02  1.295676531E+02  0.000000000E+00  0.00000E+00  9.000E+00
       2    -1     0     0   501     0  0.000000000E+00  0.000000000E+00 -4.430289279E-02  4.430289279E-02  0.000000000E+00  0.00000E+00  9.000E+00
      23     2     1     2     0     0  1.847743147E-01  2.588167020E-01  3.380882432E+01  3.389690183E+01  2.421203031E+00  0.00000E+00  9.000E+00
      11     1     3     3     0     0  7.834043468E-01 -7.013972218E-01  8.817896936E+00  8.880370885E+00  5.110000000E-04  0.00000E+00  9.000E+00
     -11     1     3     3     0     0 -5.986300321E-01  9.602139239E-01  2.499092739E+01  2.501653094E+01  5.110000000E-04  0.00000E+00  9.000E+00
       2     1     1     2   502     0 -1.847743147E-01 -2.588167020E-01  9.571452590E+01  9.571505418E+01  0.000000000E+00  0.00000E+00  9.000E+00
#rwgt            1          17   883135.01348247274                3    10551715           0
<weights>
0.11145E+08
0.12296E+08
0.98779E+07
0.12758E+08
0.94345E+07
0.10692E+08
0.11574E+08
0.10934E+08
0.11445E+08
0.10798E+08
0.10752E+08
0.10968E+08
0.10949E+08
0.10804E+08
0.10767E+08
0.11193E+08
0.11298E+08
0.11523E+08
0.11558E+08
0.11536E+08
0.11501E+08
0.11574E+08
0.11567E+08
0.11543E+08
0.11278E+08
0.11327E+08
0.11423E+08
0.11517E+08
0.11386E+08
0.11565E+08
0.11572E+08
0.11177E+08
0.11245E+08
0.11133E+08
0.11194E+08
0.11045E+08
0.11289E+08
0.11218E+08
0.11003E+08
0.11181E+08
0.11113E+08
0.11216E+08
0.11071E+08
0.11558E+08
0.10769E+08
</weights>
</event>
<event>
      7  10001 -1.11453E+07  1.00082E+00 -1.00000E+00  5.62264E-01
      -1    -1     0     0     0   501  0.000000000E+00  0.000000000E+00  9.477871174E-01  9.477871174E-01  0.000000000E+00  0.00000E+00  9.000E+00
       2    -1     0     0   501     0  0.000000000E+00  0.000000000E+00 -3.221502453E+02  3.221502453E+02  0.000000000E+00  0.00000E+00  9.000E+00
      23     2     1     2     0     0 -6.152981962E-01  6.611003571E-02 -3.199335327E+02  3.199954525E+02  6.264285416E+00  0.00000E+00  9.000E+00
      11     1     3     3     0     0  2.530983148E+00  1.152604680E+00 -1.848313244E+02  1.848522460E+02  5.110000000E-04  0.00000E+00  9.000E+00
     -11     1     3     3     0     0 -3.146281344E+00 -1.086494644E+00 -1.351022084E+02  1.351432065E+02  5.110000000E-04  0.00000E+00  9.000E+00
       2     1     1     2   502     0 -3.553021602E-01 -3.101727545E-01 -1.874425742E+00  1.932852459E+00  0.000000000E+00  0.00000E+00  9.000E+00
      -1     1     1     2     0   502  9.706003564E-01  2.440627188E-01  6.055003301E-01  1.169727452E+00  0.000000000E+00  0.00000E+00  9.000E+00
#rwgt            1          17  -36124866.774979666                3    10570575           0
<weights>
-.11145E+08
-.90388E+07
-.13641E+08
-.12007E+08
-.10213E+08
-.84560E+07
-.15006E+08
-.11126E+08
-.11163E+08
-.11173E+08
-.11159E+08
-.11028E+08
-.11286E+08
-.11164E+08
-.11161E+08
-.11313E+08
-.10891E+08
-.11385E+08
-.10776E+08
-.10728E+08
-.11413E+08
-.11103E+08
-.11159E+08
-.11096E+08
-.11146E+08
-.11257E+08
-.11070E+08
-.10850E+08
-.11442E+08
-.11079E+08
-.11168E+08
-.11031E+08
-.11255E+08
-.11406E+08
-.10817E+08
-.11113E+08
-.11173E+08
-.11164E+08
-.11130E+08
-.11220E+08
-.11077E+08
-.11143E+08
-.11147E+08
-.11124E+08
-.11167E+08
</weights>
</event>
<event>
      6  10001 -1.11453E+07  8.94427E-01 -1.00000E+00  5.51441E-01
       2    -1     0     0   501     0  0.000000000E+00  0.000000000E+00  4.909368113E+02  4.909368113E+02  0.000000000E+00  0.00000E+00  9.000E+00
      21    -1     0     0   502   501  0.000000000E+00  0.000000000E+00 -3.795464918E-03  3.795464918E-03  0.000000000E+00  0.00000E+00  9.000E+00
      23     2     1     2     0     0  1.473185572E-01 -3.997179954E-01  1.872746394E+02  1.872819315E+02  1.596819085E+00  0.00000E+00  9.000E+00
      11     1     3     3     0     0 -6.728119615E-01  1.943334586E-02  1.045098152E+02  1.045119826E+02  5.110000000E-04  0.00000E+00  9.000E+00
     -11     1     3     3     0     0  8.201305187E-01 -4.191513413E-01  8.276482427E+01  8.276994888E+01  5.110000000E-04  0.00000E+00  9.000E+00
       2     1     1     2   502     0 -1.473185572E-01  3.997179954E-01  3.036583764E+02  3.036586752E+02  0.000000000E+00  0.00000E+00  9.000E+00
#rwgt            1          24  -1856152.9140496668                3    10596013           0
<weights>
-.11145E+08
-.11583E+08
-.10509E+08
-.14077E+08
-.84203E+07
-.91715E+07
-.13910E+08
-.11164E+08
-.11129E+08
-.10819E+08
-.10806E+08
-.10961E+08
-.11001E+08
-.10835E+08
-.10817E+08
-.11225E+08
-.11216E+08
-.11468E+08
-.11518E+08
-.11503E+08
-.11444E+08
-.11510E+08
-.11528E+08
-.11434E+08
-.11325E+08
-.11286E+08
-.11412E+08
-.11442E+08
-.11380E+08
-.11489E+08
-.11523E+08
-.11186E+08
-.11218E+08
-.11137E+08
-.11179E+08
-.11203E+08
-.11108E+08
-.11142E+08
-.11074E+08
-.11169E+08
-.11125E+08
-.11187E+08
-.11102E+08
-.11513E+08
-.10807E+08
</weights>
</event>
<event>
      6  10001 -1.11453E+07  8.94427E-01 -1.00000E+00  2.74211E-01
      21    -1     0     0   502   501  0.000000000E+00  0.000000000E+00  1.521478058E-02  1.521478058E-02  0.000000000E+00  0.00000E+00  9.000E+00
       2    -1     0     0   501     0  0.000000000E+00  0.000000000E+00 -3.608807743E+02  3.608807743E+02  0.000000000E+00  0.00000E+00  9.000E+00
      23     2     1     2     0     0  1.080083984E-01  1.302239449E+00 -3.224571177E+02  3.224653256E+02  1.893662724E+00  0.00000E+00  9.000E+00
      11     1     3     3     0     0  8.638306143E-01  8.960267838E-01 -2.505010633E+02  2.505041552E+02  5.110000000E-04  0.00000E+00  9.000E+00
     -11     1     3     3     0     0 -7.558222159E-01  4.062126657E-01 -7.195605442E+01  7.196117039E+01  5.110000000E-04  0.00000E+00  9.000E+00
       2     1     1     2   502     0 -1.080083984E-01 -1.302239449E+00 -3.840844184E+01  3.843066351E+01  0.000000000E+00  0.00000E+00  9.000E+00
#rwgt            1          17  -22132557.707680672                3    10596799           0
<weights>
-.11145E+08
-.12059E+08
-.10089E+08
-.14657E+08
-.80838E+07
-.91702E+07
-.13910E+08
-.11128E+08
-.11162E+08
-.11168E+08
-.11157E+08
-.11026E+08
-.11285E+08
-.11161E+08
-.11158E+08
-.11332E+08
-.10865E+08
-.11391E+08
-.10774E+08
-.10725E+08
-.11418E+08
-.11105E+08
-.11164E+08
-.11097E+08
-.11148E+08
-.11254E+08
-.11072E+08
-.10850E+08
-.11444E+08
-.11080E+08
-.11172E+08
-.11022E+08
-.11265E+08
-.11405E+08
-.10817E+08
-.11116E+08
-.11171E+08
-.11160E+08
-.11134E+08
-.11220E+08
-.11077E+08
-.11144E+08
-.11146E+08
-.11127E+08
-.11163E+08
</weights>
</event>
<event>
      6  10001 -1.11453E+07  8.94427E-01 -1.00000E+00  2.71811E-01
      -4    -1     0     0     0   502  0.000000000E+00  0.000000000E+00  1.935727243E+02  1.935727243E+02  0.000000000E+00  0.00000E+00  9.000E+00
      21    -1     0     0   502   501  0.000000000E+00  0.000000000E+00 -2.445106261E-02  2.445106261E-02  0.000000000E+00  0.00000E+00  9.000E+00
      23     2     1     2     0     0 -3.665349460E-01 -3.793320361E-01  1.904186622E+02  1.904234227E+02  1.238855041E+00  0.00000E+00  9.000E+00
      11     1     3     3     0     0 -1.465784360E-01  3.041934638E-01  1.308110335E+02  1.308114693E+02  5.110000000E-04  0.00000E+00  9.000E+00
     -11     1     3     3     0     0 -2.199565100E-01 -6.835254998E-01  5.960762870E+01  5.961195339E+01  5.110000000E-04  0.00000E+00  9.000E+00
      -4     1     1     2     0   501  3.665349460E-01  3.793320361E-01  3.129611086E+00  3.173752701E+00  0.000000000E+00  0.00000E+00  9.000E+00
#rwgt            1           3  -3387531.6103184442                3    10597321           0
<weights>
-.11145E+08
-.12293E+08
-.98701E+07
-.14935E+08
-.79082E+07
-.91740E+07
-.13910E+08
-.11163E+08
-.11127E+08
-.10917E+08
-.10909E+08
-.10999E+08
-.11062E+08
-.10937E+08
-.10921E+08
-.11213E+08
-.11169E+08
-.11370E+08
-.11381E+08
-.11371E+08
-.11354E+08
-.11395E+08
-.11398E+08
-.11333E+08
-.11268E+08
-.11239E+08
-.11289E+08
-.11341E+08
-.11303E+08
-.11377E+08
-.11402E+08
-.11172E+08
-.11195E+08
-.11134E+08
-.11174E+08
-.11197E+08
-.11107E+08
-.11124E+08
-.11117E+08
-.11144E+08
-.11148E+08
-.11172E+08
-.11117E+08
-.11398E+08
-.10911E+08
</weights>
</event>
<event>
      6  10001  1.11453E+07  8.94427E-01 -1.00000E+00  6.00454E-01
      -2    -1     0     0     0   502  0.000000000E+00  0.000000000E+00  3.007987263E-01  3.007987263E-01  0.000000000E+00  0.00000E+00  9.000E+00
      21    -1     0     0   502   501  0.000000000E+00  0.000000000E+00 -1.796567593E+01  1.796567593E+01  0.000000000E+00  0.00000E+00  9.000E+00
      23     2     1     2     0     0  4.066954917E-01 -1.284889837E-01 -4.144210981E+00  4.739082974E+00  2.258874085E+00  0.00000E+00  9.000E+00
      11     1     3     3     0     0  6.173619417E-01 -3.872512721E-01 -1.666843693E-01  7.475849483E-01  5.110000000E-04  0.00000E+00  9.000E+00
     -11     1     3     3     0     0 -2.106664500E-01  2.587622884E-01 -3.977526612E+00  3.991498025E+00  5.110000000E-04  0.00000E+00  9.000E+00
      -2     1     1     2     0   501 -4.066954917E-01  1.284889837E-01 -1.352066622E+01  1.352739168E+01  0.000000000E+00  0.00000E+00  9.000E+00
#rwgt            1           7   1670055.4113020939                3    10598853           0
<weights>
0.11145E+08
0.13444E+08
0.86973E+07
0.12359E+08
0.96293E+07
0.11890E+08
0.97345E+07
0.11302E+08
0.10983E+08
0.10485E+08
0.10537E+08
0.10802E+08
0.10865E+08
0.10523E+08
0.10533E+08
0.11282E+08
0.11303E+08
0.11751E+08
0.11836E+08
0.11834E+08
0.11701E+08
0.11797E+08
0.11923E+08
0.11411E+08
0.11700E+08
0.11600E+08
0.10972E+08
0.11716E+08
0.11498E+08
0.11730E+08
0.11831E+08
0.11176E+08
0.11317E+08
0.11146E+08
0.11181E+08
0.11377E+08
0.10946E+08
0.10898E+08
0.11147E+08
0.11209E+08
0.11090E+08
0.11205E+08
0.11084E+08
0.11841E+08
0.10505E+08
</weights>
</event>
<event>
      7  10001  1.11453E+07  1.75650E+01 -1.00000E+00  1.70948E-01
      21    -1     0     0   502   501  0.000000000E+00  0.000000000E+00  9.196992290E+01  9.196992290E+01  0.000000000E+00  0.00000E+00  9.000E+00
       2    -1     0     0   501     0  0.000000000E+00  0.000000000E+00 -1.571725632E+00  1.571725632E+00  0.000000000E+00  0.00000E+00  9.000E+00
      23     2     1     2     0     0  5.254714660E+00 -2.521738967E+00  8.844244203E+00  1.065536571E+01  1.159728086E+00  0.00000E+00  9.000E+00
      11     1     3     3     0     0  7.005537309E-01 -7.651174334E-01  1.207546875E+00  1.591964175E+00  5.110000000E-04  0.00000E+00  9.000E+00
     -11     1     3     3     0     0  4.554160929E+00 -1.756621534E+00  7.636697328E+00  9.063401532E+00  5.110000000E-04  0.00000E+00  9.000E+00
       2     1     1     2   511     0 -1.881454987E+00  4.452180495E+00  8.894359395E+00  1.012281646E+01  0.000000000E+00  0.00000E+00  9.000E+00
      21     1     1     2   502   511 -3.373259672E+00 -1.930441527E+00  7.265959367E+01  7.276346637E+01  1.651812370E-06  0.00000E+00  9.000E+00
#rwgt            2         189   574025.78706383950                3    10673729           0
<weights>
0.11145E+08
0.10205E+08
0.12127E+08
0.12403E+08
0.97165E+07
0.91702E+07
0.13910E+08
0.11099E+08
0.11195E+08
0.10853E+08
0.10840E+08
0.10990E+08
0.10997E+08
0.10869E+08
0.10851E+08
0.11176E+08
0.11269E+08
0.11435E+08
0.11458E+08
0.11450E+08
0.11414E+08
0.11472E+08
0.11480E+08
0.11351E+08
0.11322E+08
0.11335E+08
0.11104E+08
0.11455E+08
0.11275E+08
0.11455E+08
0.11470E+08
0.11161E+08
0.11229E+08
0.11132E+08
0.11187E+08
0.11102E+08
0.11212E+08
0.11112E+08
0.11102E+08
0.11153E+08
0.11137E+08
0.11202E+08
0.11085E+08
0.11472E+08
0.10844E+08
</weights>
</event>
<event>
      7  10001 -1.11453E+07  3.33218E+00 -1.00000E+00  2.79746E-01
      21    -1     0     0   502   512  0.000000000E+00  0.000000000E+00  1.079747295E+01  1.079747295E+01  0.000000000E+00  0.00000E+00  9.000E+00
       4    -1     0     0   501     0  0.000000000E+00  0.000000000E+00 -2.786011840E+01  2.786011840E+01  0.000000000E+00  0.00000E+00  9.000E+00
      23     2     1     2     0     0  6.182357576E-01  1.149777222E+00 -8.783624467E+00  8.980171311E+00  1.336867566E+00  0.00000E+00  9.000E+00
      11     1     3     3     0     0 -1.129479281E-01 -2.481101429E-01 -1.804117080E+00  1.824597100E+00  5.110000000E-04  0.00000E+00  9.000E+00
     -11     1     3     3     0     0  7.311836857E-01  1.397887365E+00 -6.979507386E+00  7.155574211E+00  5.110000000E-04  0.00000E+00  9.000E+00
       4     1     1     2   502     0  6.020147981E-01  1.950931427E+00 -1.866174106E+01  1.877309603E+01  0.000000000E+00  0.00000E+00  9.000E+00
      21     1     1     2   501   512 -1.220250556E+00 -3.100708649E+00  1.038272008E+01  1.090432399E+01  1.685873940E-07  0.00000E+00  9.000E+00
#rwgt            1          19  -118265.99618540141                3    10674322           0
<weights>
-.11145E+08
-.97339E+07
-.11672E+08
-.19372E+08
-.51845E+07
-.44368E+07
-.21176E+08
-.11195E+08
-.11096E+08
-.11077E+08
-.11142E+08
-.11047E+08
-.11212E+08
-.11136E+08
-.11148E+08
-.11169E+08
-.11067E+08
-.11135E+08
-.11108E+08
-.11102E+08
-.11140E+08
-.11120E+08
-.11124E+08
-.11098E+08
-.11183E+08
-.11158E+08
-.11106E+08
-.11112E+08
-.11094E+08
-.11079E+08
-.11122E+08
-.11094E+08
-.11192E+08
-.11159E+08
-.11125E+08
-.11242E+08
-.11056E+08
-.10874E+08
-.11461E+08
-.11059E+08
-.11224E+08
-.11121E+08
-.11171E+08
-.11159E+08
-.11118E+08
</weights>
</event>
<event>
      6  10001 -1.11453E+07  8.94427E-01 -1.00000E+00  1.68878E-01
      -4    -1     0     0     0   502  0.000000000E+00  0.000000000E+00  2.250235071E+02  2.250235071E+02  0.000000000E+00  0.00000E+00  9.000E+00
      21    -1     0     0   502   501  0.000000000E+00  0.000000000E+00 -4.179486740E-03  4.179486740E-03  0.000000000E+00  0.00000E+00  9.000E+00
      23     2     1     2     0     0  2.462642805E-01  3.012193553E-01  1.924391143E+02  1.924451502E+02  1.473681045E+00  0.00000E+00  9.000E+00
      11     1     3     3     0     0 -3.715322449E-01  3.549422629E-01  2.708752761E+01  2.709240064E+01  5.110000000E-04  0.00000E+00  9.000E+00
     -11     1     3     3     0     0  6.177965254E-01 -5.372290755E-02  1.653515867E+02  1.653527495E+02  5.110000000E-04  0.00000E+00  9.000E+00
      -4     1     1     2     0   501 -2.462642805E-01 -3.012193553E-01  3.258021335E+01  3.258253644E+01  0.000000000E+00  0.00000E+00  9.000E+00
#rwgt            1           3  -763913.09685542749                3    10677575           0
<weights>
-.11145E+08
-.12885E+08
-.91957E+07
-.15673E+08
-.73685E+07
-.91627E+07
-.13909E+08
-.11182E+08
-.11108E+08
-.10842E+08
-.10842E+08
-.10969E+08
-.11022E+08
-.10863E+08
-.10851E+08
-.11223E+08
-.11196E+08
-.11435E+08
-.11469E+08
-.11459E+08
-.11414E+08
-.11468E+08
-.11492E+08
-.11367E+08
-.11329E+08
-.11281E+08
-.11283E+08
-.11406E+08
-.11346E+08
-.11442E+08
-.11480E+08
-.11174E+08
-.11216E+08
-.11140E+08
-.11172E+08
-.11217E+08
-.11091E+08
-.11096E+08
-.11120E+08
-.11157E+08
-.11135E+08
-.11180E+08
-.11109E+08
-.11477E+08
-.10839E+08
</weights>
</event>
<event>
      7  10001  1.11453E+07  1.29638E+00 -1.00000E+00  4.71485E-01
       2    -1     0     0   501     0  0.000000000E+00  0.000000000E+00  1.271876047E+02  1.271876047E+02  0.000000000E+00  0.00000E+00  9.000E+00
       1    -1     0     0   502     0  0.000000000E+00  0.000000000E+00 -1.289369804E-01  1.289369804E-01  0.000000000E+00  0.00000E+00  9.000E+00
      23     2     1     2     0     0 -3.343260749E-01 -1.568168817E-01  1.137241512E+02  1.137311536E+02  1.206805588E+00  0.00000E+00  9.000E+00
      11     1     3     3     0     0 -5.784474354E-01 -5.506047205E-01  7.121773120E+01  7.122220865E+01  5.110000000E-04  0.00000E+00  9.000E+00
     -11     1     3     3     0     0  2.441213605E-01  3.937878389E-01  4.250641999E+01  4.250894500E+01  5.110000000E-04  0.00000E+00  9.000E+00
       2     1     1     2   502     0 -3.620184984E-01  1.250304682E+00  6.837704724E+00  6.960497474E+00  0.000000000E+00  0.00000E+00  9.000E+00
       1     1     1     2   501     0  6.963445733E-01 -1.093487800E+00  6.496811797E+00  6.624890554E+00  0.000000000E+00  0.00000E+00  9.000E+00
#rwgt            1          24   3563305.7367848400                3    10678180           0
<weights>
0.11145E+08
0.15313E+08
0.65008E+07
0.13600E+08
0.84365E+07
0.12541E+08
0.87347E+07
0.11092E+08
0.11208E+08
0.10671E+08
0.10579E+08
0.10904E+08
0.10874E+08
0.10658E+08
0.10601E+08
0.11248E+08
0.11335E+08
0.11682E+08
0.11791E+08
0.11760E+08
0.11645E+08
0.11779E+08
0.11759E+08
0.11770E+08
0.11333E+08
0.11338E+08
0.11877E+08
0.11674E+08
0.11581E+08
0.11783E+08
0.11789E+08
0.11260E+08
0.11224E+08
0.11118E+08
0.11225E+08
0.11139E+08
0.11183E+08
0.11427E+08
0.10786E+08
0.11240E+08
0.11063E+08
0.11225E+08
0.11061E+08
0.11740E+08
0.10609E+08
</weights>
</event>
<event>
      6  10001 -1.11453E+07  8.94427E-01 -1.00000E+00  1.45788E-01
      -1    -1     0     0     0   502  0.000000000E+00  0.000000000E+00  1.538844423E-02  1.538844423E-02  0.000000000E+00  0.00000E+00  9.000E+00
      21    -1     0     0   502   501  0.000000000E+00  0.000000000E+00 -4.466031704E+01  4.466031704E+01  0.000000000E+00  0.00000E+00  9.000E+00
      23     2     1     2     0     0  7.574305800E-02  4.536647915E-01 -3.200572038E+01  3.202813129E+01  1.106122931E+00  0.00000E+00  9.000E+00
      11     1     3     3     0     0  5.362121389E-01  2.551639376E-01 -1.066395364E+01  1.068047469E+01  5.110000000E-04  0.00000E+00  9.000E+00
     -11     1     3     3     0     0 -4.604690809E-01  1.985008539E-01 -2.134176674E+01  2.134765660E+01  5.110000000E-04  0.00000E+00  9.000E+00
      -1     1     1     2     0   501 -7.574305800E-02 -4.536647915E-01 -1.263920822E+01  1.264757420E+01  0.000000000E+00  0.00000E+00  9.000E+00
#rwgt            1           9  -118365.16996407272                3    10771299           0
<weights>
-.11145E+08
-.12580E+08
-.94830E+07
-.15290E+08
-.75983E+07
-.91702E+07
-.13910E+08
-.11213E+08
-.11078E+08
-.10989E+08
-.11054E+08
-.11017E+08
-.11154E+08
-.11043E+08
-.11057E+08
-.11185E+08
-.11105E+08
-.11226E+08
-.11218E+08
-.11213E+08
-.11223E+08
-.11220E+08
-.11247E+08
-.11137E+08
-.11271E+08
-.11237E+08
-.11075E+08
-.11201E+08
-.11152E+08
-.11175E+08
-.11227E+08
-.11104E+08
-.11212E+08
-.11158E+08
-.11132E+08
-.11263E+08
-.11038E+08
-.10878E+08
-.11416E+08
-.11087E+08
-.11199E+08
-.11136E+08
-.11155E+08
-.11260E+08
-.11028E+08
</weights>
</event>
<event>
      6  10001 -1.11453E+07  8.94427E-01 -1.00000E+00  6.07459E-01
      21    -1     0     0   502   501  0.000000000E+00  0.000000000E+00  2.223788341E-01  2.223788341E-01  0.000000000E+00  0.00000E+00  9.000E+00
       2    -1     0     0   501     0  0.000000000E+00  0.000000000E+00 -3.088144481E+00  3.088144481E+00  0.000000000E+00  0.00000E+00  9.000E+00
      23     2     1     2     0     0 -2.612479359E-01  1.664153142E-01 -2.781255427E+00  2.989452422E+00  1.051427361E+00  0.00000E+00  9.000E+00
      11     1     3     3     0     0  3.813351504E-01  2.380036221E-01 -1.151827599E+00  1.236434106E+00  5.110000000E-04  0.00000E+00  9.000E+00
     -11     1     3     3     0     0 -6.425830863E-01 -7.158830782E-02 -1.629427828E+00  1.753018316E+00  5.110000000E-04  0.00000E+00  9.000E+00
       2     1     1     2   502     0  2.612479359E-01 -1.664153142E-01 -8.451022004E-02  3.210708927E-01  0.000000000E+00  0.00000E+00  9.000E+00
#rwgt            1          17  -770002.89225804771                3    10773378           0
<weights>
-.11145E+08
-.11717E+08
-.91592E+07
-.20574E+08
-.38995E+07
-.52336E+07
-.19953E+08
-.11294E+08
-.10992E+08
-.10939E+08
-.10996E+08
-.10998E+08
-.11123E+08
-.10981E+08
-.10997E+08
-.11225E+08
-.11092E+08
-.11281E+08
-.11309E+08
-.11310E+08
-.11267E+08
-.11287E+08
-.11339E+08
-.11165E+08
-.11323E+08
-.11232E+08
-.11099E+08
-.11248E+08
-.11227E+08
-.11245E+08
-.11306E+08
-.11142E+08
-.11194E+08
-.11144E+08
-.11149E+08
-.11343E+08
-.10951E+08
-.10924E+08
-.11310E+08
-.11112E+08
-.11176E+08
-.11139E+08
-.11152E+08
-.11326E+08
-.10971E+08
</weights>
</event>
<event>
      6  10001 -1.11453E+07  8.94427E-01 -1.00000E+00  2.58816E-01
      21    -1     0     0   502   501  0.000000000E+00  0.000000000E+00  2.486347562E-02  2.486347562E-02  0.000000000E+00  0.00000E+00  9.000E+00
       2    -1     0     0   501     0  0.000000000E+00  0.000000000E+00 -2.868324734E+02  2.868324734E+02  0.000000000E+00  0.00000E+00  9.000E+00
      23     2     1     2     0     0  1.936206185E+00  3.983801895E-01 -2.260733372E+02  2.260909030E+02  2.008738602E+00  0.00000E+00  9.000E+00
      11     1     3     3     0     0  9.580335256E-01 -2.293959659E-01 -3.455579051E+01  3.456982946E+01  5.110000000E-04  0.00000E+00  9.000E+00
     -11     1     3     3     0     0  9.781726598E-01  6.277761554E-01 -1.915175467E+02  1.915210736E+02  5.110000000E-04  0.00000E+00  9.000E+00
       2     1     1     2   502     0 -1.936206185E+00 -3.983801895E-01 -6.073427270E+01  6.076643384E+01  0.000000000E+00  0.00000E+00  9.000E+00
#rwgt            1          17  -22636689.856464773                3    10781291           0
<weights>
-.11145E+08
-.12302E+08
-.97983E+07
-.14951E+08
-.78509E+07
-.91702E+07
-.13910E+08
-.11127E+08
-.11162E+08
-.11170E+08
-.11163E+08
-.11061E+08
-.11247E+08
-.11165E+08
-.11163E+08
-.11339E+08
-.10851E+08
-.11320E+08
-.10856E+08
-.10821E+08
-.11338E+08
-.11104E+08
-.11154E+08
-.11139E+08
-.11102E+08
-.11190E+08
-.11109E+08
-.10936E+08
-.11331E+08
-.11091E+08
-.11156E+08
-.11034E+08
-.11251E+08
-.11319E+08
-.10919E+08
-.11129E+08
-.11158E+08
-.11168E+08
-.11124E+08
-.11193E+08
-.11101E+08
-.11154E+08
-.11136E+08
-.11122E+08
-.11167E+08
</weights>
</event>
<event>
      7  10001  1.11453E+07  5.57573E+00 -1.00000E+00  2.29283E-01
       2    -1     0     0   501     0  0.000000000E+00  0.000000000E+00  1.334354085E+02  1.334354085E+02  0.000000000E+00  0.00000E+00  9.000E+00
      21    -1     0     0   511   501  0.000000000E+00  0.000000000E+00 -4.447145135E+00  4.447145135E+00  0.000000000E+00  0.00000E+00  9.000E+00
      23     2     1     2     0     0 -3.484513410E+00  2.353287854E+00  9.756986530E+01  9.801133100E+01  8.286289514E+00  0.00000E+00  9.000E+00
      11     1     3     3     0     0 -5.344426127E+00  7.662134610E-01  8.678523472E+01  8.695301570E+01  5.110000000E-04  0.00000E+00  9.000E+00
     -11     1     3     3     0     0  1.859912717E+00  1.587074393E+00  1.078463058E+01  1.105831531E+01  5.110000000E-04  0.00000E+00  9.000E+00
       2     1     1     2   502     0  1.053595994E+00 -7.371200450E+00  3.319453325E+01  3.401943119E+01  0.000000000E+00  0.00000E+00  9.000E+00
      21     1     1     2   511   502  2.430917416E+00  5.017912596E+00 -1.776135222E+00  5.851791403E+00  1.316034923E-07  0.00000E+00  9.000E+00
#rwgt            1          24   1024692.5949096382                3    10781737           0
<weights>
0.11145E+08
0.12003E+08
0.10132E+08
0.12104E+08
0.99183E+07
0.10935E+08
0.11201E+08
0.11196E+08
0.11092E+08
0.10749E+08
0.10735E+08
0.10927E+08
0.10967E+08
0.10764E+08
0.10745E+08
0.11239E+08
0.11243E+08
0.11543E+08
0.11586E+08
0.11578E+08
0.11512E+08
0.11590E+08
0.11619E+08
0.11436E+08
0.11392E+08
0.11344E+08
0.11249E+08
0.11518E+08
0.11420E+08
0.11565E+08
0.11605E+08
0.11196E+08
0.11232E+08
0.11137E+08
0.11184E+08
0.11233E+08
0.11080E+08
0.11146E+08
0.11050E+08
0.11186E+08
0.11111E+08
0.11191E+08
0.11097E+08
0.11593E+08
0.10735E+08
</weights>
</event>
<event>
      6  10001 -1.11453E+07  8.94427E-01 -1.00000E+00  6.48840E-01
      21    -1     0     0   502   501  0.000000000E+00  0.000000000E+00  5.845842601E+01  5.845842601E+01  0.000000000E+00  0.00000E+00  9.000E+00
      -2    -1     0     0     0   502  0.000000000E+00  0.000000000E+00 -1.385818753E-02  1.385818753E-02  0.000000000E+00  0.00000E+00  9.000E+00
      23     2     1     2     0     0  1.563405236E-01  4.525902979E-01  3.321916009E+01  3.324233224E+01  1.144891069E+00  0.00000E+00  9.000E+00
      11     1     3     3     0     0 -4.439280182E-01  2.036000703E-01  2.119292263E+01  2.119854936E+01  5.110000000E-04  0.00000E+00  9.000E+00
     -11     1     3     3     0     0  6.002685418E-01  2.489902277E-01  1.202623745E+01  1.204378288E+01  5.110000000E-04  0.00000E+00  9.000E+00
      -2     1     1     2     0   501 -1.563405236E-01 -4.525902979E-01  2.522540774E+01  2.522995196E+01  0.000000000E+00  0.00000E+00  9.000E+00
#rwgt            1          14  -488786.92737904575                3    10823041           0
<weights>
-.11145E+08
-.12665E+08
-.93898E+07
-.15402E+08
-.75239E+07
-.91647E+07
-.13909E+08
-.11146E+08
-.11155E+08
-.10818E+08
-.10802E+08
-.10961E+08
-.10998E+08
-.10833E+08
-.10813E+08
-.11223E+08
-.11222E+08
-.11474E+08
-.11513E+08
-.11500E+08
-.11450E+08
-.11515E+08
-.11530E+08
-.11427E+08
-.11325E+08
-.11294E+08
-.11347E+08
-.11449E+08
-.11376E+08
-.11494E+08
-.11525E+08
-.11184E+08
-.11220E+08
-.11137E+08
-.11180E+08
-.11190E+08
-.11122E+08
-.11147E+08
-.11070E+08
-.11169E+08
-.11125E+08
-.11189E+08
-.11099E+08
-.11516E+08
-.10805E+08
</weights>
</event>
<event>
      7  10001  1.11453E+07  8.94427E-01 -1.00000E+00  6.07649E-01
      21    -1     0     0   511   502  0.000000000E+00  0.000000000E+00  1.300829844E+02  1.300829844E+02  0.000000000E+00  0.00000E+00  9.000E+00
      21    -1     0     0   502   501  0.000000000E+00  0.000000000E+00 -3.130560365E-02  3.130560365E-02  0.000000000E+00  0.00000E+00  9.000E+00
      23     2     1     2     0     0 -2.809639703E-01  3.001240230E-01  3.498006922E+01  3.504109003E+01  2.025767116E+00  0.00000E+00  9.000E+00
      11     1     3     3     0     0  3.166414688E-02  2.486778775E-01  4.977359679E-01  5.573012289E-01  5.110000000E-04  0.00000E+00  9.000E+00
     -11     1     3     3     0     0 -3.126281172E-01  5.144614557E-02  3.448233325E+01  3.448378880E+01  5.110000000E-04  0.00000E+00  9.000E+00
      -2     1     1     2     0   501  1.676083171E-01 -1.330784159E-01  7.942248342E+01  7.942277177E+01  0.000000000E+00  0.00000E+00  9.000E+00
       2     1     1     2   511     0  1.133556532E-01 -1.670456071E-01  1.564912613E+01  1.565042819E+01  0.000000000E+00  0.00000E+00  9.000E+00
#rwgt            2         170   575689.96140334406                3    10824507           0
<weights>
0.11145E+08
0.10888E+08
0.11158E+08
0.13233E+08
0.89405E+07
0.91702E+07
0.13910E+08
0.11166E+08
0.11126E+08
0.10814E+08
0.10799E+08
0.10958E+08
0.10998E+08
0.10830E+08
0.10810E+08
0.11227E+08
0.11219E+08
0.11475E+08
0.11522E+08
0.11509E+08
0.11451E+08
0.11518E+08
0.11536E+08
0.11435E+08
0.11328E+08
0.11290E+08
0.11391E+08
0.11449E+08
0.11385E+08
0.11498E+08
0.11531E+08
0.11188E+08
0.11218E+08
0.11137E+08
0.11180E+08
0.11204E+08
0.11107E+08
0.11150E+08
0.11066E+08
0.11171E+08
0.11124E+08
0.11188E+08
0.11101E+08
0.11520E+08
0.10801E+08
</weights>
</event>
<event>
      7  10001  1.11453E+07  8.94427E-01 -1.00000E+00  6.07649E-01
      -2    -1     0     0     0   501  0.000000000E+00  0.000000000E+00  8.604290873E-01  8.604290873E-01  0.000000000E+00  0.00000E+00  9.000E+00
       5    -1     0     0   501     0  0.000000000E+00  0.000000000E+00 -9.643763994E+00  9.643763994E+00  0.000000000E+00  0.00000E+00  9.000E+00
      23     2     1     2     0     0 -4.484056037E-01 -9.794048990E-02 -2.305771467E-01  1.866427603E+00  1.794359566E+00  0.00000E+00  9.000E+00
      11     1     3     3     0     0 -1.060250881E+00  2.586219026E-01 -3.545741280E-01  1.147493047E+00  5.110000000E-04  0.00000E+00  9.000E+00
     -11     1     3     3     0     0  6.118452773E-01 -3.565623925E-01  1.239969813E-01  7.189345559E-01  5.110000000E-04  0.00000E+00  9.000E+00
       5     1     1     2   502     0  6.345273067E-01 -1.844580713E-01 -7.563064598E+00  7.591876961E+00  0.000000000E+00  0.00000E+00  9.000E+00
      -2     1     1     2     0   502 -1.861217030E-01  2.823985612E-01 -9.896931621E-01  1.045888517E+00  0.000000000E+00  0.00000E+00  9.000E+00
#rwgt            2         119   21710.355190513070                3    10825803           0
<weights>
0.11145E+08
0.12145E+08
0.97411E+07
0.14761E+08
0.78050E+07
0.91702E+07
0.13910E+08
0.11220E+08
0.11069E+08
0.10881E+08
0.10919E+08
0.10972E+08
0.11080E+08
0.10917E+08
0.10923E+08
0.11209E+08
0.11166E+08
0.11364E+08
0.11376E+08
0.11373E+08
0.11348E+08
0.11374E+08
0.11418E+08
0.11227E+08
0.11358E+08
0.11318E+08
0.11060E+08
0.11342E+08
0.11251E+08
0.11335E+08
0.11387E+08
0.11140E+08
0.11222E+08
0.11147E+08
0.11155E+08
0.11271E+08
0.11034E+08
0.10956E+08
0.11261E+08
0.11127E+08
0.11163E+08
0.11155E+08
0.11135E+08
0.11404E+08
0.10901E+08
</weights>
</event>
<event>
      6  10001 -1.11453E+07  8.94427E-01 -1.00000E+00  5.33402E-01
      -1    -1     0     0     0   502  0.000000000E+00  0.000000000E+00  1.453016882E-02  1.453016882E-02  0.000000000E+00  0.00000E+00  9.000E+00
       1    -1     0     0   501     0  0.000000000E+00  0.000000000E+00 -5.637181422E+01  5.637181422E+01  0.000000000E+00  0.00000E+00  9.000E+00
      23     2     1     2     0     0  5.293282102E-01  2.201708725E-01 -3.083653516E+01  3.085915717E+01  1.032965016E+00  0.00000E+00  9.000E+00
      11     1     3     3     0     0  7.891934131E-02  4.796048406E-02 -2.171114050E-01  2.359366309E-01  5.110000000E-04  0.00000E+00  9.000E+00
     -11     1     3     3     0     0  4.504088689E-01  1.722103884E-01 -3.061942376E+01  3.062322054E+01  5.110000000E-04  0.00000E+00  9.000E+00
      21     1     1     2   501   502 -5.293282102E-01 -2.201708725E-01 -2.552074889E+01  2.552718722E+01  0.000000000E+00  0.00000E+00  9.000E+00
#rwgt            1          10  -81557.833237230006                3    10826168           0
<weights>
-.11145E+08
-.12914E+08
-.92434E+07
-.15695E+08
-.74063E+07
-.91702E+07
-.13910E+08
-.11217E+08
-.11074E+08
-.11089E+08
-.11103E+08
-.11030E+08
-.11165E+08
-.11114E+08
-.11122E+08
-.10790E+08
-.11505E+08
-.11051E+08
-.11221E+08
-.11203E+08
-.11040E+08
-.11175E+08
-.11145E+08
-.11207E+08
-.11101E+08
-.11180E+08
-.11101E+08
-.11141E+08
-.11032E+08
-.11146E+08
-.11155E+08
-.11100E+08
-.11194E+08
-.11041E+08
-.11193E+08
-.11066E+08
-.11217E+08
-.10998E+08
-.11309E+08
-.11137E+08
-.11143E+08
-.11223E+08
-.11062E+08
-.11179E+08
-.11106E+08
</weights>
</event>
<event>
      6  10001 -1.11453E+07  8.94427E-01 -1.00000E+00  4.78361E-01
      21    -1     0     0   502   501  0.000000000E+00  0.000000000E+00  1.770020008E-02  1.770020008E-02  0.000000000E+00  0.00000E+00  9.000E+00
       1    -1     0     0   501     0  0.000000000E+00  0.000000000E+00 -1.845580210E+02  1.845580210E+02  0.000000000E+00  0.00000E+00  9.000E+00
      23     2     1     2     0     0  7.204365972E-01 -6.947732039E-01 -9.694426223E+01  9.697394488E+01  2.180427984E+00  0.00000E+00  9.000E+00
      11     1     3     3     0     0  1.461206624E-01 -1.414239700E+00 -6.861643195E+01  6.863116026E+01  5.110000000E-04  0.00000E+00  9.000E+00
     -11     1     3     3     0     0  5.743159348E-01  7.194664964E-01 -2.832783028E+01  2.834278461E+01  5.110000000E-04  0.00000E+00  9.000E+00
       1     1     1     2   502     0 -7.204365972E-01  6.947732039E-01 -8.759605852E+01  8.760177628E+01  0.000000000E+00  0.00000E+00  9.000E+00
#rwgt            1          16  -673127.31995196058                3    10827923           0
<weights>
-.11145E+08
-.12353E+08
-.97624E+07
-.15013E+08
-.78221E+07
-.91702E+07
-.13910E+08
-.11219E+08
-.11073E+08
-.11181E+08
-.11221E+08
-.11316E+08
-.10946E+08
-.11197E+08
-.11203E+08
-.10352E+08
-.12086E+08
-.10578E+08
-.11679E+08
-.11756E+08
-.10509E+08
-.11143E+08
-.11011E+08
-.11364E+08
-.10827E+08
-.10835E+08
-.11299E+08
-.11465E+08
-.10551E+08
-.11174E+08
-.11033E+08
-.11094E+08
-.11177E+08
-.10592E+08
-.11711E+08
-.11125E+08
-.11153E+08
-.11162E+08
-.11137E+08
-.11240E+08
-.11051E+08
-.11216E+08
-.11068E+08
-.11083E+08
-.11202E+08
</weights>
</event>
<event>
      7  10001  1.11453E+07  1.26975E+00 -1.00000E+00  4.78130E-01
       2    -1     0     0   501     0  0.000000000E+00  0.000000000E+00  2.354907948E-01  2.354907948E-01  0.000000000E+00  0.00000E+00  9.000E+00
      -1    -1     0     0     0   501  0.000000000E+00  0.000000000E+00 -6.231667373E+01  6.231667373E+01  0.000000000E+00  0.00000E+00  9.000E+00
      23     2     1     2     0     0  1.242393901E-01 -1.796044403E-01 -1.872225399E+00  2.283500629E+00  1.288974009E+00  0.00000E+00  9.000E+00
      11     1     3     3     0     0 -1.986787244E-01  1.046859997E-02 -1.897539532E+00  1.907941132E+00  5.110000000E-04  0.00000E+00  9.000E+00
     -11     1     3     3     0     0  3.229181144E-01 -1.900730403E-01  2.531413298E-02  3.755594969E-01  5.110000000E-04  0.00000E+00  9.000E+00
       2     1     1     2   502     0 -5.273967863E-01 -1.024440465E+00 -1.598117359E+01  1.602265692E+01  0.000000000E+00  0.00000E+00  9.000E+00
      -1     1     1     2     0   502  4.031573962E-01  1.204044905E+00 -4.422778395E+01  4.424600697E+01  0.000000000E+00  0.00000E+00  9.000E+00
#rwgt            1          24   2227590.3685580567                3    10828357           0
<weights>
0.11145E+08
0.12772E+08
0.94112E+07
0.12435E+08
0.95711E+07
0.11264E+08
0.10696E+08
0.11269E+08
0.11017E+08
0.10630E+08
0.10670E+08
0.10862E+08
0.10942E+08
0.10664E+08
0.10671E+08
0.11259E+08
0.11255E+08
0.11615E+08
0.11674E+08
0.11671E+08
0.11577E+08
0.11649E+08
0.11745E+08
0.11351E+08
0.11574E+08
0.11497E+08
0.11007E+08
0.11585E+08
0.11413E+08
0.11594E+08
0.11676E+08
0.11168E+08
0.11280E+08
0.11142E+08
0.11176E+08
0.11336E+08
0.10981E+08
0.10936E+08
0.11166E+08
0.11180E+08
0.11116E+08
0.11189E+08
0.11100E+08
0.11686E+08
0.10646E+08
</weights>
</event>
<event>
      7  10001  1.11453E+07  8.94427E-01 -1.00000E+00  6.07649E-01
       2    -1     0     0   501     0  0.000000000E+00  0.000000000E+00  3.650488268E-01  3.650488268E-01  0.000000000E+00  0.00000E+00  9.000E+00
      21    -1     0     0   502   501  0.000000000E+00  0.000000000E+00 -6.855735683E+00  6.855735683E+00  0.000000000E+00  0.00000E+00  9.000E+00
      23     2     1     2     0     0 -2.247038373E-01 -2.492132691E-01 -6.564150057E+00  6.770661393E+00  1.625174040E+00  0.00000E+00  9.000E+00
      11     1     3     3     0     0 -7.566088137E-01  2.812271488E-01 -4.548853014E+00  4.619914459E+00  5.110000000E-04  0.00000E+00  9.000E+00
     -11     1     3     3     0     0  5.319049764E-01 -5.304404179E-01 -2.015297043E+00  2.150746934E+00  5.110000000E-04  0.00000E+00  9.000E+00
       2     1     1     2   511     0  1.379636913E-01  6.336188669E-02 -9.976151569E-02  1.816619631E-01  0.000000000E+00  0.00000E+00  9.000E+00
      21     1     1     2   502   511  8.674014599E-02  1.858513825E-01  1.732247157E-01  2.684611544E-01  3.592539862E-08  0.00000E+00  9.000E+00
#rwgt            2         248   392451.62557681801                3    10903203           0
<weights>
0.11145E+08
0.11398E+08
0.10650E+08
0.13853E+08
0.85336E+07
0.91702E+07
0.13910E+08
0.11208E+08
0.11080E+08
0.10888E+08
0.10910E+08
0.10983E+08
0.11067E+08
0.10917E+08
0.10917E+08
0.11216E+08
0.11164E+08
0.11374E+08
0.11379E+08
0.11376E+08
0.11356E+08
0.11387E+08
0.11420E+08
0.11249E+08
0.11338E+08
0.11289E+08
0.11091E+08
0.11344E+08
0.11276E+08
0.11355E+08
0.11399E+08
0.11153E+08
0.11213E+08
0.11142E+08
0.11162E+08
0.11248E+08
0.11057E+08
0.11014E+08
0.11203E+08
0.11136E+08
0.11154E+08
0.11164E+08
0.11126E+08
0.11408E+08
0.10899E+08
</weights>
</event>
<event>
      7  10001  1.11453E+07  2.89797E+00 -1.00000E+00  2.96665E-01
       2    -1     0     0   501     0  0.000000000E+00  0.000000000E+00  4.314104959E+01  4.314104959E+01  0.000000000E+00  0.00000E+00  9.000E+00
      21    -1     0     0   502   512  0.000000000E+00  0.000000000E+00 -3.955058546E+00  3.955058546E+00  0.000000000E+00  0.00000E+00  9.000E+00
      23     2     1     2     0     0  2.318661433E+00  1.326196882E+00  2.865606998E+01  2.881001142E+01  1.308213347E+00  0.00000E+00  9.000E+00
      11     1     3     3     0     0  1.903847512E+00  1.042401523E+00  1.631995752E+01  1.646366454E+01  5.110000000E-04  0.00000E+00  9.000E+00
     -11     1     3     3     0     0  4.148139213E-01  2.837953593E-01  1.233611246E+01  1.234634688E+01  5.110000000E-04  0.00000E+00  9.000E+00
       2     1     1     2   502     0 -4.655544348E-01  9.018630785E-01  1.384543665E+01  1.388258672E+01  0.000000000E+00  0.00000E+00  9.000E+00
      21     1     1     2   501   512 -1.853106998E+00 -2.228059961E+00 -3.315515586E+00  4.403510002E+00  9.424321831E-08  0.00000E+00  9.000E+00
#rwgt            1          24   1296032.7642065082                3    10903815           0
<weights>
0.11145E+08
0.13975E+08
0.82997E+07
0.12916E+08
0.90923E+07
0.11820E+08
0.98423E+07
0.11143E+08
0.11152E+08
0.10766E+08
0.10727E+08
0.10941E+08
0.10957E+08
0.10773E+08
0.10742E+08
0.11234E+08
0.11257E+08
0.11543E+08
0.11612E+08
0.11592E+08
0.11514E+08
0.11603E+08
0.11610E+08
0.11544E+08
0.11332E+08
0.11305E+08
0.11548E+08
0.11522E+08
0.11449E+08
0.11590E+08
0.11615E+08
0.11211E+08
0.11221E+08
0.11131E+08
0.11194E+08
0.11183E+08
0.11132E+08
0.11237E+08
0.10978E+08
0.11193E+08
0.11104E+08
0.11200E+08
0.11088E+08
0.11592E+08
0.10738E+08
</weights>
</event>
<event>
      7  10001  1.11453E+07  1.32374E+00 -1.00000E+00  4.65045E-01
      21    -1     0     0   502   511  0.000000000E+00  0.000000000E+00  8.216456562E+00  8.216456562E+00  0.000000000E+00  0.00000E+00  9.000E+00
       2    -1     0     0   501     0  0.000000000E+00  0.000000000E+00 -6.468923222E+00  6.468923222E+00  0.000000000E+00  0.00000E+00  9.000E+00
      23     2     1     2     0     0  4.324303306E-01 -2.079522403E-02 -3.808056541E+00  3.992949207E+00  1.120232262E+00  0.00000E+00  9.000E+00
      11     1     3     3     0     0  2.122579621E-01 -1.505535977E-02 -3.761904409E+00  3.767917880E+00  5.110000000E-04  0.00000E+00  9.000E+00
     -11     1     3     3     0     0  2.201723686E-01 -5.739864256E-03 -4.615213209E-02  2.250313275E-01  5.110000000E-04  0.00000E+00  9.000E+00
       2     1     1     2   502     0  7.836747706E-01 -5.020479792E-01 -2.427779482E+00  2.600059909E+00  0.000000000E+00  0.00000E+00  9.000E+00
      21     1     1     2   501   511 -1.216105101E+00  5.228432032E-01  7.983369363E+00  8.092370667E+00  8.429369702E-08  0.00000E+00  9.000E+00
#rwgt            1          17   179739.68617811924                3    10922938           0
<weights>
0.11145E+08
0.28837E+08
-.33012E+07
0.31345E+07
0.14816E+08
0.29074E+08
-.16644E+08
0.10210E+08
0.12069E+08
0.10488E+08
0.10126E+08
0.11158E+08
0.10149E+08
0.10350E+08
0.10182E+08
0.10530E+08
0.12711E+08
0.11923E+08
0.12492E+08
0.12458E+08
0.11876E+08
0.12340E+08
0.12124E+08
0.12231E+08
0.11341E+08
0.12022E+08
0.10825E+08
0.12838E+08
0.10901E+08
0.12487E+08
0.12149E+08
0.11250E+08
0.11386E+08
0.10952E+08
0.11570E+08
0.93973E+07
0.13000E+08
0.11962E+08
0.10007E+08
0.11293E+08
0.10981E+08
0.11671E+08
0.10585E+08
0.12121E+08
0.10291E+08
</weights>
</event>
<event>
      6  10001 -1.11453E+07  8.94427E-01 -1.00000E+00  4.43137E-01
      -4    -1     0     0     0   502  0.000000000E+00  0.000000000E+00  4.909967673E+01  4.909967673E+01  0.000000000E+00  0.00000E+00  9.000E+00
      21    -1     0     0   502   501  0.000000000E+00  0.000000000E+00 -2.504679872E-02  2.504679872E-02  0.000000000E+00  0.00000E+00  9.000E+00
      23     2     1     2     0     0  2.274749164E-01 -5.787250131E-01  4.273799313E+01  4.275764936E+01  1.137477386E+00  0.00000E+00  9.000E+00
      11     1     3     3     0     0 -1.072912187E-01  2.612532643E-01  1.953855414E+01  1.954059525E+01  5.110000000E-04  0.00000E+00  9.000E+00
     -11     1     3     3     0     0  3.347661350E-01 -8.399782773E-01  2.319943899E+01  2.321705411E+01  5.110000000E-04  0.00000E+00  9.000E+00
      -4     1     1     2     0   501 -2.274749164E-01  5.787250131E-01  6.336636797E+00  6.367074161E+00  0.000000000E+00  0.00000E+00  9.000E+00
#rwgt            1           3  -79328188.163502023                3    10931386           0
<weights>
-.11145E+08
-.13028E+08
-.90648E+07
-.15859E+08
-.72640E+07
-.91556E+07
-.13908E+08
-.11164E+08
-.11129E+08
-.10813E+08
-.10797E+08
-.10958E+08
-.10997E+08
-.10828E+08
-.10808E+08
-.11227E+08
-.11220E+08
-.11477E+08
-.11526E+08
-.11512E+08
-.11452E+08
-.11520E+08
-.11537E+08
-.11441E+08
-.11328E+08
-.11289E+08
-.11406E+08
-.11451E+08
-.11387E+08
-.11500E+08
-.11533E+08
-.11189E+08
-.11218E+08
-.11136E+08
-.11181E+08
-.11202E+08
-.11109E+08
-.11153E+08
-.11063E+08
-.11171E+08
-.11123E+08
-.11188E+08
-.11100E+08
-.11522E+08
-.10800E+08
</weights>
</event>
<event>
      7  10001  1.11453E+07  8.94427E-01 -1.00000E+00  6.07649E-01
      21    -1     0     0   501   511  0.000000000E+00  0.000000000E+00  3.544001341E+00  3.544001341E+00  0.000000000E+00  0.00000E+00  9.000E+00
      -2    -1     0     0     0   502  0.000000000E+00  0.000000000E+00 -2.392868433E+00  2.392868433E+00  0.000000000E+00  0.00000E+00  9.000E+00
      23     2     1     2     0     0 -2.307816500E-01  2.961875760E-01 -2.020324165E+00  2.340224207E+00  1.119800141E+00  0.00000E+00  9.000E+00
      11     1     3     3     0     0 -3.117516334E-01 -2.562732330E-01 -2.292520738E-01  4.641355678E-01  5.110000000E-04  0.00000E+00  9.000E+00
     -11     1     3     3     0     0  8.096998333E-02  5.524608089E-01 -1.791072091E+00  1.876088639E+00  5.110000000E-04  0.00000E+00  9.000E+00
      21     1     1     2   501   502  4.940770683E-01 -3.240217189E-01  3.263336567E+00  3.316393791E+00  1.192092896E-07  0.00000E+00  9.000E+00
      -2     1     1     2     0   511 -2.632954183E-01  2.783414293E-02 -9.187949485E-02  2.802517767E-01  0.000000000E+00  0.00000E+00  9.000E+00
#rwgt            2         161   1137353.2143962178                3    10937330           0
<weights>
0.11143E+08
0.11370E+08
0.10661E+08
0.13818E+08
0.85424E+07
0.91683E+07
0.13907E+08
0.11108E+08
0.11178E+08
0.10850E+08
0.10840E+08
0.10979E+08
0.11002E+08
0.10867E+08
0.10851E+08
0.11179E+08
0.11255E+08
0.11449E+08
0.11427E+08
0.11416E+08
0.11431E+08
0.11464E+08
0.11479E+08
0.11345E+08
0.11318E+08
0.11355E+08
0.11074E+08
0.11434E+08
0.11281E+08
0.11444E+08
0.11466E+08
0.11146E+08
0.11239E+08
0.11150E+08
0.11159E+08
0.11090E+08
0.11218E+08
0.11093E+08
0.11111E+08
0.11154E+08
0.11132E+08
0.11202E+08
0.11081E+08
0.11468E+08
0.10843E+08
</weights>
</event>
<event>
      6  10001 -1.11453E+07  8.94427E-01 -1.00000E+00  1.72241E-01
      21    -1     0     0   502   501  0.000000000E+00  0.000000000E+00  2.491762972E-02  2.491762972E-02  0.000000000E+00  0.00000E+00  9.000E+00
       2    -1     0     0   501     0  0.000000000E+00  0.000000000E+00 -3.980619317E+01  3.980619317E+01  0.000000000E+00  0.00000E+00  9.000E+00
      23     2     1     2     0     0 -1.497891566E-01  3.558976024E-01 -3.398260619E+01  3.401959928E+01  1.538347133E+00  0.00000E+00  9.000E+00
      11     1     3     3     0     0  1.291525544E-01  1.655404842E-01 -6.070531228E-01  6.423377532E-01  5.110000000E-04  0.00000E+00  9.000E+00
     -11     1     3     3     0     0 -2.789417110E-01  1.903571182E-01 -3.337555307E+01  3.337726153E+01  5.110000000E-04  0.00000E+00  9.000E+00
       2     1     1     2   502     0  1.497891566E-01 -3.558976024E-01 -5.798669356E+00  5.811511524E+00  0.000000000E+00  0.00000E+00  9.000E+00
#rwgt            1          17  -75834200.721477151                3    10938949           0
<weights>
-.11144E+08
-.12729E+08
-.94372E+07
-.15470E+08
-.75615E+07
-.91692E+07
-.13908E+08
-.11192E+08
-.11096E+08
-.11046E+08
-.11089E+08
-.11136E+08
-.11045E+08
-.11079E+08
-.11088E+08
-.11090E+08
-.11221E+08
-.11094E+08
-.11334E+08
-.11344E+08
-.11084E+08
-.11200E+08
-.11200E+08
-.11236E+08
-.11135E+08
-.11141E+08
-.11141E+08
-.11335E+08
-.10940E+08
-.11194E+08
-.11177E+08
-.11143E+08
-.11160E+08
-.11068E+08
-.11252E+08
-.11116E+08
-.11173E+08
-.11007E+08
-.11278E+08
-.11078E+08
-.11197E+08
-.11208E+08
-.11076E+08
-.11214E+08
-.11073E+08
</weights>
</event>
<event>
      6  10001  1.11453E+07  8.94427E-01 -1.00000E+00  6.01255E-01
       2    -1     0     0   501     0  0.000000000E+00  0.000000000E+00  4.397486645E-02  4.397486645E-02  0.000000000E+00  0.00000E+00  9.000E+00
      -2    -1     0     0     0   502  0.000000000E+00  0.000000000E+00 -7.212306311E+01  7.212306311E+01  0.000000000E+00  0.00000E+00  9.000E+00
      23     2     1     2     0     0  2.156820327E-01  1.590000388E-01 -2.091629388E+01  2.100354194E+01  1.893574538E+00  0.00000E+00  9.000E+00
      11     1     3     3     0     0  1.745771406E-01 -4.541159545E-01 -1.862281768E+01  1.862917167E+01  5.110000000E-04  0.00000E+00  9.000E+00
     -11     1     3     3     0     0  4.110489213E-02  6.131159933E-01 -2.293476197E+00  2.374370266E+00  5.110000000E-04  0.00000E+00  9.000E+00
      21     1     1     2   501   502 -2.156820327E-01 -1.590000388E-01 -5.116279436E+01  5.116349604E+01  6.743495762E-07  0.00000E+00  9.000E+00
#rwgt            1          23   374061.01654489950                3    10939987           0
<weights>
0.11145E+08
0.12424E+08
0.10035E+08
0.10427E+08
0.11090E+08
0.12317E+08
0.90793E+07
0.11302E+08
0.10992E+08
0.10886E+08
0.11011E+08
0.11024E+08
0.10973E+08
0.10981E+08
0.10997E+08
0.11038E+08
0.11310E+08
0.11333E+08
0.11206E+08
0.11163E+08
0.11348E+08
0.11272E+08
0.11311E+08
0.11229E+08
0.11264E+08
0.11341E+08
0.11025E+08
0.11266E+08
0.11030E+08
0.11215E+08
0.11279E+08
0.11039E+08
0.11294E+08
0.11356E+08
0.10943E+08
0.10910E+08
0.11363E+08
0.10786E+08
0.11525E+08
0.11118E+08
0.11149E+08
0.11356E+08
0.10919E+08
0.11323E+08
0.10964E+08
</weights>
</event>
<event>
      6  10001 -1.11453E+07  8.94427E-01 -1.00000E+00  3.06495E-01
      -1    -1     0     0     0   502  0.000000000E+00  0.000000000E+00  1.268033234E+02  1.268033234E+02  0.000000000E+00  0.00000E+00  9.000E+00
      21    -1     0     0   502   501  0.000000000E+00  0.000000000E+00 -2.444757044E-02  2.444757044E-02  0.000000000E+00  0.00000E+00  9.000E+00
      23     2     1     2     0     0 -1.450344300E+00 -3.968196050E-01  8.362866001E+01  8.365136434E+01  1.239764576E+00  0.00000E+00  9.000E+00
      11     1     3     3     0     0 -2.433930931E-02 -4.155294727E-01  3.299192503E+01  3.299455068E+01  5.110000000E-04  0.00000E+00  9.000E+00
     -11     1     3     3     0     0 -1.426004991E+00  1.870986768E-02  5.063673498E+01  5.065681366E+01  5.110000000E-04  0.00000E+00  9.000E+00
      -1     1     1     2     0   501  1.450344300E+00  3.968196050E-01  4.315021578E+01  4.317640660E+01  0.000000000E+00  0.00000E+00  9.000E+00
#rwgt            1           9  -1120158.6821818012                3    10941830           0
<weights>
-.11145E+08
-.13007E+08
-.89784E+07
-.15809E+08
-.71940E+07
-.91702E+07
-.13910E+08
-.11165E+08
-.11126E+08
-.10875E+08
-.10861E+08
-.10983E+08
-.11035E+08
-.10889E+08
-.10873E+08
-.11217E+08
-.11195E+08
-.11416E+08
-.11445E+08
-.11434E+08
-.11396E+08
-.11448E+08
-.11461E+08
-.11375E+08
-.11296E+08
-.11265E+08
-.11319E+08
-.11391E+08
-.11337E+08
-.11430E+08
-.11458E+08
-.11180E+08
-.11204E+08
-.11134E+08
-.11178E+08
-.11200E+08
-.11107E+08
-.11141E+08
-.11083E+08
-.11157E+08
-.11136E+08
-.11178E+08
-.11111E+08
-.11451E+08
-.10864E+08
</weights>
</event>
<event>
      7  10001  1.11453E+07  7.58386E+00 -1.00000E+00  2.09996E-01
      21    -1     0     0   502   501  0.000000000E+00  0.000000000E+00  6.038831543E-01  6.038831543E-01  0.000000000E+00  0.00000E+00  9.000E+00
       4    -1     0     0   501     0  0.000000000E+00  0.000000000E+00 -3.437648149E+01  3.437648149E+01  0.000000000E+00  0.00000E+00  9.000E+00
      23     2     1     2     0     0  1.269547761E+00 -9.710049286E-01 -2.421343439E+01  2.431498327E+01  1.540585814E+00  0.00000E+00  9.000E+00
      11     1     3     3     0     0  1.288009562E+00 -1.310256276E+00 -1.836181845E+01  1.845351233E+01  5.110000000E-04  0.00000E+00  9.000E+00
     -11     1     3     3     0     0 -1.846180155E-02  3.392513478E-01 -5.851615933E+00  5.861470942E+00  5.110000000E-04  0.00000E+00  9.000E+00
       4     1     1     2   511     0 -1.513846654E-01 -1.360630154E+00 -6.578088148E+00  6.719038280E+00  0.000000000E+00  0.00000E+00  9.000E+00
      21     1     1     2   502   511 -1.118163096E+00  2.331635083E+00 -2.981075804E+00  3.946343094E+00  4.558878702E-07  0.00000E+00  9.000E+00
#rwgt            2         195   309601.05310627242                3    10942978           0
<weights>
0.11145E+08
0.11258E+08
0.10744E+08
0.13682E+08
0.86085E+07
0.91702E+07
0.13910E+08
0.11243E+08
0.11048E+08
0.10894E+08
0.10982E+08
0.10958E+08
0.11137E+08
0.10964E+08
0.10984E+08
0.11191E+08
0.11133E+08
0.11291E+08
0.11306E+08
0.11300E+08
0.11285E+08
0.11293E+08
0.11338E+08
0.11168E+08
0.11341E+08
0.11306E+08
0.11059E+08
0.11277E+08
0.11175E+08
0.11231E+08
0.11304E+08
0.11096E+08
0.11245E+08
0.11169E+08
0.11124E+08
0.11314E+08
0.10995E+08
0.10785E+08
0.11492E+08
0.11081E+08
0.11205E+08
0.11130E+08
0.11162E+08
0.11347E+08
0.10945E+08
</weights>
</event>
<event>
      6  10001 -1.11453E+07  8.94427E-01 -1.00000E+00  2.07456E-01
      -4    -1     0     0     0   502  0.000000000E+00  0.000000000E+00  2.499313993E-02  2.499313993E-02  0.000000000E+00  0.00000E+00  9.000E+00
       4    -1     0     0   501     0  0.000000000E+00  0.000000000E+00 -2.353587300E+01  2.353587300E+01  0.000000000E+00  0.00000E+00  9.000E+00
      23     2     1     2     0     0 -3.118372283E-01 -1.054151227E-01 -1.874317353E+01  1.878180991E+01  1.158220485E+00  0.00000E+00  9.000E+00
      11     1     3     3     0     0 -1.971241713E-01  3.511018921E-01 -1.544175426E+01  1.544700312E+01  5.110000000E-04  0.00000E+00  9.000E+00
     -11     1     3     3     0     0 -1.147130570E-01 -4.565170149E-01 -3.301419271E+00  3.334806791E+00  5.110000000E-04  0.00000E+00  9.000E+00
      21     1     1     2   501   502  3.118372283E-01  1.054151227E-01 -4.767706332E+00  4.779056232E+00  5.960464478E-08  0.00000E+00  9.000E+00
#rwgt            1           4  -2443756.0111976210                3    10944217           0
<weights>
-.11145E+08
-.13737E+08
-.85581E+07
-.16695E+08
-.68572E+07
-.91702E+07
-.13910E+08
-.11245E+08
-.11045E+08
-.10848E+08
-.10921E+08
-.10945E+08
-.11096E+08
-.10903E+08
-.10922E+08
-.11201E+08
-.11166E+08
-.11356E+08
-.11386E+08
-.11381E+08
-.11343E+08
-.11364E+08
-.11425E+08
-.11204E+08
-.11392E+08
-.11354E+08
-.11041E+08
-.11342E+08
-.11221E+08
-.11307E+08
-.11378E+08
-.11113E+08
-.11249E+08
-.11162E+08
-.11136E+08
-.11315E+08
-.10995E+08
-.10831E+08
-.11401E+08
-.11107E+08
-.11182E+08
-.11142E+08
-.11149E+08
-.11413E+08
-.10888E+08
</weights>
</event>
<event>
      7  10001  1.11453E+07  1.68441E+00 -1.00000E+00  3.89129E-01
      -2    -1     0     0     0   502  0.000000000E+00  0.000000000E+00  7.647150505E-01  7.647150505E-01  0.000000000E+00  0.00000E+00  9.000E+00
      21    -1     0     0   502   511  0.000000000E+00  0.000000000E+00 -6.785327862E+01  6.785327862E+01  0.000000000E+00  0.00000E+00  9.000E+00
      23     2     1     2     0     0  3.983619279E-02 -4.123083199E-01 -1.776517624E-01  1.282668183E+00  1.200871536E+00  0.00000E+00  9.000E+00
      11     1     3     3     0     0 -6.384651579E-02 -2.403228406E-01  5.094092955E-01  5.668593624E-01  5.110000000E-04  0.00000E+00  9.000E+00
     -11     1     3     3     0     0  1.036827086E-01 -1.719854793E-01 -6.870610579E-01  7.158088205E-01  5.110000000E-04  0.00000E+00  9.000E+00
      -2     1     1     2     0   501  5.930234236E-01 -1.148696454E+00 -1.874158218E+00  2.276762910E+00  0.000000000E+00  0.00000E+00  9.000E+00
      21     1     1     2   501   511 -6.328596164E-01  1.561004774E+00 -6.503675359E+01  6.505856258E+01  9.536743164E-07  0.00000E+00  9.000E+00
#rwgt            1           7   625572.58202050207                3    10945662           0
<weights>
0.11145E+08
0.16443E+08
0.63676E+07
0.88933E+07
0.11634E+08
0.16325E+08
0.29261E+07
0.11215E+08
0.11062E+08
0.10296E+08
0.10164E+08
0.10693E+08
0.10710E+08
0.10284E+08
0.10199E+08
0.11366E+08
0.11442E+08
0.12124E+08
0.12145E+08
0.12138E+08
0.12044E+08
0.12239E+08
0.12229E+08
0.11853E+08
0.11676E+08
0.11655E+08
0.11251E+08
0.12100E+08
0.11826E+08
0.12230E+08
0.12258E+08
0.11359E+08
0.11262E+08
0.11086E+08
0.11289E+08
0.11281E+08
0.11051E+08
0.11502E+08
0.10547E+08
0.11300E+08
0.11013E+08
0.11258E+08
0.11027E+08
0.12186E+08
0.10205E+08
</weights>
</event>
<event>
      7  10001  1.11453E+07  1.32337E+01 -1.00000E+00  1.82345E-01
       5    -1     0     0   501     0  0.000000000E+00  0.000000000E+00  4.005175193E+00  4.005175193E+00  0.000000000E+00  0.00000E+00  9.000E+00
      21    -1     0     0   502   501  0.000000000E+00  0.000000000E+00 -1.208386455E+01  1.208386455E+01  0.000000000E+00  0.00000E+00  9.000E+00
      23     2     1     2     0     0 -1.424390485E+00  3.712950417E+00  1.524809602E+00  4.563052747E+00  1.637533814E+00  0.00000E+00  9.000E+00
      11     1     3     3     0     0 -1.655141490E+00  3.594566059E+00  1.175940989E+00  4.128345428E+00  5.110000000E-04  0.00000E+00  9.000E+00
     -11     1     3     3     0     0  2.307510044E-01  1.183843586E-01  3.488686138E-01  4.347073190E-01  5.110000000E-04  0.00000E+00  9.000E+00
       5     1     1     2   511     0 -6.624987111E-01  4.960642219E-01  8.104276070E-03  8.276774334E-01  0.000000000E+00  0.00000E+00  9.000E+00
      21     1     1     2   502   511  2.086889196E+00 -4.209014639E+00 -9.611603239E+00  1.069830957E+01  5.196212463E-07  0.00000E+00  9.000E+00
#rwgt            1          30   228967.66340929971                3    10962402           0
<weights>
0.11145E+08
0.12551E+08
0.95374E+07
0.13035E+08
0.89688E+07
0.10629E+08
0.11671E+08
0.11223E+08
0.11064E+08
0.10817E+08
0.10840E+08
0.10948E+08
0.11033E+08
0.10845E+08
0.10845E+08
0.11227E+08
0.11193E+08
0.11445E+08
0.11463E+08
0.11461E+08
0.11421E+08
0.11464E+08
0.11514E+08
0.11282E+08
0.11403E+08
0.11351E+08
0.11063E+08
0.11417E+08
0.11315E+08
0.11427E+08
0.11480E+08
0.11159E+08
0.11230E+08
0.11140E+08
0.11169E+08
0.11271E+08
0.11036E+08
0.11004E+08
0.11176E+08
0.11150E+08
0.11142E+08
0.11171E+08
0.11119E+08
0.11488E+08
0.10827E+08
</weights>
</event>
<event>
      7  10001  1.11453E+07  8.94427E-01 -1.00000E+00  6.07649E-01
      21    -1     0     0   512   502  0.000000000E+00  0.000000000E+00  3.760419007E-02  3.760419007E-02  0.000000000E+00  0.00000E+00  9.000E+00
       2    -1     0     0   501     0  0.000000000E+00  0.000000000E+00 -1.918209745E+02  1.918209745E+02  0.000000000E+00  0.00000E+00  9.000E+00
      23     2     1     2     0     0 -7.436547061E-01  3.510543170E-01 -1.745105981E+02  1.745162408E+02  1.137195998E+00  0.00000E+00  9.000E+00
      11     1     3     3     0     0  9.113944932E-02 -3.197341535E-01 -4.152646337E+01  4.152779427E+01  5.110000000E-04  0.00000E+00  9.000E+00
     -11     1     3     3     0     0 -8.347941555E-01  6.707884705E-01 -1.329841347E+02  1.329884466E+02  5.110000000E-04  0.00000E+00  9.000E+00
      21     1     1     2   501   502  6.863939569E-01  3.690315488E-03 -3.600509171E+00  3.665353540E+00  3.097148194E-07  0.00000E+00  9.000E+00
       2     1     1     2   512     0  5.726074924E-02 -3.547446325E-01 -1.367226302E+01  1.367698427E+01  0.000000000E+00  0.00000E+00  9.000E+00
#rwgt            2         190   4436713.4544143640                3    10967239           0
<weights>
0.11145E+08
0.11103E+08
0.11004E+08
0.13495E+08
0.88173E+07
0.91702E+07
0.13910E+08
0.11130E+08
0.11159E+08
0.11173E+08
0.11170E+08
0.11107E+08
0.11197E+08
0.11172E+08
0.11171E+08
0.11296E+08
0.10903E+08
0.11219E+08
0.10972E+08
0.10955E+08
0.11227E+08
0.11103E+08
0.11134E+08
0.11185E+08
0.11051E+08
0.11121E+08
0.11148E+08
0.11047E+08
0.11182E+08
0.11104E+08
0.11133E+08
0.11069E+08
0.11212E+08
0.11216E+08
0.11046E+08
0.11139E+08
0.11147E+08
0.11170E+08
0.11121E+08
0.11155E+08
0.11133E+08
0.11168E+08
0.11120E+08
0.11115E+08
0.11173E+08
</weights>
</event>
<event>
      7  10001  1.11453E+07  8.94427E-01 -1.00000E+00  6.07649E-01
       4    -1     0     0   501     0  0.000000000E+00  0.000000000E+00  6.139020148E+00  6.139020148E+00  0.000000000E+00  0.00000E+00  9.000E+00
      21    -1     0     0   511   502  0.000000000E+00  0.000000000E+00 -1.740585659E+00  1.740585659E+00  0.000000000E+00  0.00000E+00  9.000E+00
      23     2     1     2     0     0  1.109638017E-01  1.774573785E-01  5.989211398E+00  6.145379653E+00  1.360600540E+00  0.00000E+00  9.000E+00
      11     1     3     3     0     0 -8.551137515E-02 -3.924556872E-01  5.968035337E-01  7.193805534E-01  5.110000000E-04  0.00000E+00  9.000E+00
     -11     1     3     3     0     0  1.964751769E-01  5.699130657E-01  5.392407864E+00  5.425999100E+00  5.110000000E-04  0.00000E+00  9.000E+00
      21     1     1     2   501   502 -2.400522187E-01 -2.807225739E-01 -1.501670885E+00  1.546429978E+00  1.942873718E-07  0.00000E+00  9.000E+00
       4     1     1     2   511     0  1.290884169E-01  1.032651954E-01 -8.910602503E-02  1.877961758E-01  0.000000000E+00  0.00000E+00  9.000E+00
#rwgt            2         309   1233098.5188262367                3    10970701           0
<weights>
0.11145E+08
0.11517E+08
0.10431E+08
0.13998E+08
0.83582E+07
0.91702E+07
0.13910E+08
0.11200E+08
0.11087E+08
0.10859E+08
0.10868E+08
0.10973E+08
0.11041E+08
0.10884E+08
0.10876E+08
0.11223E+08
0.11180E+08
0.11415E+08
0.11425E+08
0.11421E+08
0.11394E+08
0.11438E+08
0.11463E+08
0.11304E+08
0.11339E+08
0.11289E+08
0.11144E+08
0.11384E+08
0.11317E+08
0.11410E+08
0.11450E+08
0.11168E+08
0.11213E+08
0.11140E+08
0.11169E+08
0.11235E+08
0.11071E+08
0.11067E+08
0.11151E+08
0.11150E+08
0.11143E+08
0.11173E+08
0.11116E+08
0.11451E+08
0.10862E+08
</weights>
</event>
<event>
      6  10001 -1.11453E+07  8.94427E-01 -1.00000E+00  3.96875E-01
       1    -1     0     0   501     0  0.000000000E+00  0.000000000E+00  6.857431279E+01  6.857431279E+01  0.000000000E+00  0.00000E+00  9.000E+00
      21    -1     0     0   502   501  0.000000000E+00  0.000000000E+00 -1.934067438E-02  1.934067438E-02  0.000000000E+00  0.00000E+00  9.000E+00
      23     2     1     2     0     0  1.462764204E-01 -2.459388019E-01  6.714793618E+01  6.715781475E+01  1.115735745E+00  0.00000E+00  9.000E+00
      11     1     3     3     0     0  5.016996810E-01  9.121151445E-02  1.740998129E+01  1.741744731E+01  5.110000000E-04  0.00000E+00  9.000E+00
     -11     1     3     3     0     0 -3.554232606E-01 -3.371503164E-01  4.973795489E+01  4.974036744E+01  5.110000000E-04  0.00000E+00  9.000E+00
       1     1     1     2   502     0 -1.462764204E-01  2.459388019E-01  1.407035929E+00  1.435838707E+00  0.000000000E+00  0.00000E+00  9.000E+00
#rwgt            1          22  -2749396.9069995168                3    10971275           0
<weights>
-.11145E+08
-.11718E+08
-.10492E+08
-.14242E+08
-.84066E+07
-.91704E+07
-.13910E+08
-.11186E+08
-.11104E+08
-.10852E+08
-.10860E+08
-.10975E+08
-.11029E+08
-.10876E+08
-.10868E+08
-.11222E+08
-.11184E+08
-.11417E+08
-.11450E+08
-.11441E+08
-.11396E+08
-.11446E+08
-.11475E+08
-.11346E+08
-.11325E+08
-.11267E+08
-.11269E+08
-.11383E+08
-.11334E+08
-.11418E+08
-.11459E+08
-.11167E+08
-.11217E+08
-.11143E+08
-.11166E+08
-.11219E+08
-.11089E+08
-.11070E+08
-.11148E+08
-.11151E+08
-.11140E+08
-.11179E+08
-.11110E+08
-.11459E+08
-.10854E+08
</weights>
</event>
<event>
      6  10001 -1.11453E+07  8.94427E-01 -1.00000E+00  2.78172E-01
       2    -1     0     0   501     0  0.000000000E+00  0.000000000E+00  4.184801505E+02  4.184801505E+02  0.000000000E+00  0.00000E+00  9.000E+00
      21    -1     0     0   502   501  0.000000000E+00  0.000000000E+00 -1.006877002E-02  1.006877002E-02  0.000000000E+00  0.00000E+00  9.000E+00
      23     2     1     2     0     0  3.649100766E-01  2.286260096E-02  4.145327220E+02  4.145359199E+02  1.586686954E+00  0.00000E+00  9.000E+00
      11     1     3     3     0     0 -5.576313823E-01 -9.058186036E-02  8.447283911E+01  8.447472820E+01  5.110000000E-04  0.00000E+00  9.000E+00
     -11     1     3     3     0     0  9.225414588E-01  1.134444613E-01  3.300598829E+02  3.300611917E+02  5.110000000E-04  0.00000E+00  9.000E+00
       2     1     1     2   502     0 -3.649100766E-01 -2.286260096E-02  3.937359645E+00  3.954299311E+00  0.000000000E+00  0.00000E+00  9.000E+00
#rwgt            1          24  -64453208.381765544                3    10972429           0
<weights>
-.11144E+08
-.11626E+08
-.10505E+08
-.14136E+08
-.84172E+07
-.91658E+07
-.13908E+08
-.11180E+08
-.11109E+08
-.10840E+08
-.10840E+08
-.10968E+08
-.11021E+08
-.10861E+08
-.10849E+08
-.11222E+08
-.11195E+08
-.11434E+08
-.11469E+08
-.11459E+08
-.11412E+08
-.11467E+08
-.11491E+08
-.11368E+08
-.11327E+08
-.11279E+08
-.11290E+08
-.11404E+08
-.11345E+08
-.11441E+08
-.11479E+08
-.11173E+08
-.11215E+08
-.11139E+08
-.11170E+08
-.11215E+08
-.11090E+08
-.11094E+08
-.11121E+08
-.11156E+08
-.11134E+08
-.11179E+08
-.11107E+08
-.11476E+08
-.10837E+08
</weights>
</event>
<event>
      7  10001  1.11453E+07  8.94427E-01 -1.00000E+00  6.07649E-01
      21    -1     0     0   501   511  0.000000000E+00  0.000000000E+00  1.841134688E+01  1.841134688E+01  0.000000000E+00  0.00000E+00  9.000E+00
      -4    -1     0     0     0   502  0.000000000E+00  0.000000000E+00 -5.944707178E+00  5.944707178E+00  0.000000000E+00  0.00000E+00  9.000E+00
      23     2     1     2     0     0  4.378019560E-01  4.222285050E-01 -5.728531350E+00  5.854874612E+00  1.045723588E+00  0.00000E+00  9.000E+00
      11     1     3     3     0     0  1.563441681E-01  7.167782475E-01 -4.529307984E+00  4.588338003E+00  5.110000000E-04  0.00000E+00  9.000E+00
     -11     1     3     3     0     0  2.814577879E-01 -2.945497426E-01 -1.199223366E+00  1.266536608E+00  5.110000000E-04  0.00000E+00  9.000E+00
      21     1     1     2   501   502 -4.613107649E-01 -9.647571458E-01  1.779381306E+01  1.782591785E+01  2.078484985E-06  0.00000E+00  9.000E+00
      -4     1     1     2     0   511  2.350880888E-02  5.425286409E-01  4.013579990E-01  6.752616038E-01  0.000000000E+00  0.00000E+00  9.000E+00
#rwgt            2         155   1474648.0501120861                3    10974167           0
<weights>
0.11145E+08
0.10655E+08
0.11480E+08
0.12950E+08
0.91987E+07
0.91702E+07
0.13910E+08
0.11220E+08
0.11067E+08
0.10820E+08
0.10835E+08
0.10944E+08
0.11039E+08
0.10846E+08
0.10843E+08
0.11221E+08
0.11207E+08
0.11451E+08
0.11463E+08
0.11461E+08
0.11427E+08
0.11471E+08
0.11511E+08
0.11289E+08
0.11399E+08
0.11371E+08
0.11053E+08
0.11434E+08
0.11311E+08
0.11437E+08
0.11485E+08
0.11165E+08
0.11226E+08
0.11138E+08
0.11172E+08
0.11275E+08
0.11033E+08
0.11027E+08
0.11160E+08
0.11152E+08
0.11141E+08
0.11165E+08
0.11126E+08
0.11490E+08
0.10825E+08
</weights>
</event>
<event>
      6  10001  1.11453E+07  8.94427E-01 -1.00000E+00  6.05999E-01
      21    -1     0     0   502   501  0.000000000E+00  0.000000000E+00  5.071618464E+01  5.071618464E+01  0.000000000E+00  0.00000E+00  9.000E+00
       4    -1     0     0   501     0  0.000000000E+00  0.000000000E+00 -4.081524108E-02  4.081524108E-02  0.000000000E+00  0.00000E+00  9.000E+00
      23     2     1     2     0     0 -2.633607258E-01 -9.345275798E-02  2.847761519E+01  2.855748673E+01  2.115984180E+00  0.00000E+00  9.000E+00
      11     1     3     3     0     0  6.886405989E-01 -3.209894515E-01  4.809710191E+00  4.869350315E+00  5.110000000E-04  0.00000E+00  9.000E+00
     -11     1     3     3     0     0 -9.520013247E-01  2.275366935E-01  2.366790500E+01  2.368813641E+01  5.110000000E-04  0.00000E+00  9.000E+00
       4     1     1     2   502     0  2.633607258E-01  9.345275798E-02  2.219775421E+01  2.219951315E+01  0.000000000E+00  0.00000E+00  9.000E+00
#rwgt            1          19   218372.38508712678                3    10975330           0
<weights>
0.11145E+08
0.14482E+08
0.79257E+07
0.12173E+08
0.97565E+07
0.12776E+08
0.83742E+07
0.11125E+08
0.11171E+08
0.10709E+08
0.10638E+08
0.10917E+08
0.10910E+08
0.10703E+08
0.10657E+08
0.11244E+08
0.11303E+08
0.11631E+08
0.11709E+08
0.11687E+08
0.11596E+08
0.11709E+08
0.11701E+08
0.11651E+08
0.11345E+08
0.11337E+08
0.11642E+08
0.11618E+08
0.11523E+08
0.11707E+08
0.11720E+08
0.11242E+08
0.11221E+08
0.11122E+08
0.11214E+08
0.11167E+08
0.11152E+08
0.11355E+08
0.10860E+08
0.11222E+08
0.11079E+08
0.11213E+08
0.11074E+08
0.11681E+08
0.10660E+08
</weights>
</event>
<event>
      7  10001  1.11453E+07  8.94427E-01 -1.00000E+00  6.07649E-01
      21    -1     0     0   502   501  0.000000000E+00  0.000000000E+00  2.742053536E-01  2.742053536E-01  0.000000000E+00  0.00000E+00  9.000E+00
       4    -1     0     0   501     0  0.000000000E+00  0.000000000E+00 -7.154434039E+00  7.154434039E+00  0.000000000E+00  0.00000E+00  9.000E+00
      23     2     1     2     0     0  2.505646298E-01 -3.020205718E-01 -6.629159545E+00  6.756891279E+00  1.247326912E+00  0.00000E+00  9.000E+00
      11     1     3     3     0     0 -2.790051496E-01  3.056251550E-01 -1.226372093E+00  1.294310388E+00  5.110000000E-04  0.00000E+00  9.000E+00
     -11     1     3     3     0     0  5.295697794E-01 -6.076457268E-01 -5.402787452E+00  5.462580891E+00  5.110000000E-04  0.00000E+00  9.000E+00
       4     1     1     2   511     0 -1.845442545E-01  1.867135451E-01 -3.960082840E-01  4.751221851E-01  0.000000000E+00  0.00000E+00  9.000E+00
      21     1     1     2   502   511 -6.602037532E-02  1.153070267E-01  1.449391435E-01  1.966259283E-01  2.781522371E-08  0.00000E+00  9.000E+00
#rwgt            2         195   8536698.8082646988                3    10981890           0
<weights>
0.11145E+08
0.12006E+08
0.99702E+07
0.14591E+08
0.79887E+07
0.91702E+07
0.13910E+08
0.11223E+08
0.11065E+08
0.10821E+08
0.10841E+08
0.10944E+08
0.11044E+08
0.10849E+08
0.10848E+08
0.11219E+08
0.11205E+08
0.11444E+08
0.11460E+08
0.11457E+08
0.11421E+08
0.11463E+08
0.11507E+08
0.11280E+08
0.11403E+08
0.11374E+08
0.11048E+08
0.11428E+08
0.11303E+08
0.11427E+08
0.11477E+08
0.11161E+08
0.11228E+08
0.11140E+08
0.11169E+08
0.11280E+08
0.11028E+08
0.11007E+08
0.11179E+08
0.11149E+08
0.11144E+08
0.11163E+08
0.11128E+08
0.11485E+08
0.10829E+08
</weights>
</event>
<event>
      6  10001 -1.11453E+07  8.94427E-01 -1.00000E+00  1.79280E-01
      21    -1     0     0   502   501  0.000000000E+00  0.000000000E+00  2.135178486E-02  2.135178486E-02  0.000000000E+00  0.00000E+00  9.000E+00
       2    -1     0     0   501     0  0.000000000E+00  0.000000000E+00 -3.196159665E+01  3.196159665E+01  0.000000000E+00  0.00000E+00  9.000E+00
      23     2     1     2     0     0  2.863317446E-01  5.547117187E-02 -2.940666189E+01  2.943263363E+01  1.201289260E+00  0.00000E+00  9.000E+00
      11     1     3     3     0     0  3.794622872E-01  5.856495716E-01 -1.646507524E+01  1.647985679E+01  5.110000000E-04  0.00000E+00  9.000E+00
     -11     1     3     3     0     0 -9.313054261E-02 -5.301783997E-01 -1.294158666E+01  1.295277684E+01  5.110000000E-04  0.00000E+00  9.000E+00
       2     1     1     2   502     0 -2.863317446E-01 -5.547117187E-02 -2.533582973E+00  2.550314805E+00  0.000000000E+00  0.00000E+00  9.000E+00
#rwgt            1          17  -6615263.6373188617                3    10984003           0
<weights>
-.11145E+08
-.12655E+08
-.95076E+07
-.15381E+08
-.76180E+07
-.91702E+07
-.13910E+08
-.11197E+08
-.11093E+08
-.11018E+08
-.11063E+08
-.11122E+08
-.11035E+08
-.11053E+08
-.11062E+08
-.11086E+08
-.11248E+08
-.11123E+08
-.11367E+08
-.11377E+08
-.11112E+08
-.11230E+08
-.11236E+08
-.11239E+08
-.11174E+08
-.11174E+08
-.11127E+08
-.11358E+08
-.10961E+08
-.11220E+08
-.11207E+08
-.11144E+08
-.11171E+08
-.11075E+08
-.11250E+08
-.11113E+08
-.11181E+08
-.10993E+08
-.11283E+08
-.11082E+08
-.11196E+08
-.11211E+08
-.11076E+08
-.11246E+08
-.11046E+08
</weights>
</event>
<event>
      6  10001  1.11453E+07  8.94427E-01 -1.00000E+00  6.04060E-01
       2    -1     0     0   501     0  0.000000000E+00  0.000000000E+00  9.074278638E+02  9.074278638E+02  0.000000000E+00  0.00000E+00  9.000E+00
      -2    -1     0     0     0   502  0.000000000E+00  0.000000000E+00 -6.068857123E-02  6.068857123E-02  0.000000000E+00  0.00000E+00  9.000E+00
      23     2     1     2     0     0 -3.704190709E-01  5.062241760E-01  9.057248662E+02  9.057305273E+02  3.140280344E+00  0.00000E+00  9.000E+00
      11     1     3     3     0     0  1.314106382E-01  1.226289564E+00  8.244455878E+02  8.244465103E+02  5.110000000E-04  0.00000E+00  9.000E+00
     -11     1     3     3     0     0 -5.018297090E-01 -7.200653884E-01  8.127927834E+01  8.128401697E+01  5.110000000E-04  0.00000E+00  9.000E+00
      21     1     1     2   501   502  3.704190709E-01 -5.062241760E-01  1.642309057E+00  1.758025097E+00  4.636153336E-07  0.00000E+00  9.000E+00
#rwgt            1          23   72205544.539128929                3    10985330           0
<weights>
0.11145E+08
0.11528E+08
0.10670E+08
0.12352E+08
0.98319E+07
0.10382E+08
0.12050E+08
0.10983E+08
0.11373E+08
0.10805E+08
0.10767E+08
0.10967E+08
0.10963E+08
0.10814E+08
0.10781E+08
0.11199E+08
0.11279E+08
0.11510E+08
0.11537E+08
0.11518E+08
0.11488E+08
0.11556E+08
0.11555E+08
0.11503E+08
0.11290E+08
0.11324E+08
0.11360E+08
0.11498E+08
0.11377E+08
0.11544E+08
0.11557E+08
0.11176E+08
0.11241E+08
0.11135E+08
0.11188E+08
0.11075E+08
0.11253E+08
0.11196E+08
0.11024E+08
0.11177E+08
0.11116E+08
0.11210E+08
0.11078E+08
0.11544E+08
0.10781E+08
</weights>
</event>
<event>
      7  10001 -1.11453E+07  1.29780E+00 -1.00000E+00  4.71139E-01
      -2    -1     0     0     0   502  0.000000000E+00  0.000000000E+00  3.188821152E+01  3.188821152E+01  0.000000000E+00  0.00000E+00  9.000E+00
      21    -1     0     0   502   511  0.000000000E+00  0.000000000E+00 -1.558542495E+00  1.558542495E+00  0.000000000E+00  0.00000E+00  9.000E+00
      23     2     1     2     0     0  6.441898249E-01 -2.652614480E-01  2.276400226E+01  2.281371608E+01  1.334353252E+00  0.00000E+00  9.000E+00
      11     1     3     3     0     0  9.366480342E-01  1.148024769E-01  1.116625980E+01  1.120606297E+01  5.110000000E-04  0.00000E+00  9.000E+00
     -11     1     3     3     0     0 -2.924582094E-01 -3.800639249E-01  1.159774246E+01  1.160765311E+01  5.110000000E-04  0.00000E+00  9.000E+00
      -2     1     1     2     0   501  5.405789933E-01  7.949767341E-01  8.793837919E+00  8.846230779E+00  0.000000000E+00  0.00000E+00  9.000E+00
      21     1     1     2   501   511 -1.184768818E+00 -5.297152861E-01 -1.228171149E+00  1.786807154E+00  3.332000937E-08  0.00000E+00  9.000E+00
#rwgt            1           7  -546310.06054898386                3    10990097           0
<weights>
-.11145E+08
-.91342E+07
-.12471E+08
-.19505E+08
-.51209E+07
-.37816E+07
-.22182E+08
-.11287E+08
-.10988E+08
-.11195E+08
-.11321E+08
-.11105E+08
-.11294E+08
-.11276E+08
-.11316E+08
-.11181E+08
-.10937E+08
-.10986E+08
-.10847E+08
-.10868E+08
-.10994E+08
-.10913E+08
-.10944E+08
-.10737E+08
-.11214E+08
-.11114E+08
-.10417E+08
-.10917E+08
-.10947E+08
-.10854E+08
-.10918E+08
-.11047E+08
-.11174E+08
-.11166E+08
-.11097E+08
-.11301E+08
-.10981E+08
-.10667E+08
-.11641E+08
-.11013E+08
-.11262E+08
-.11104E+08
-.11189E+08
-.10980E+08
-.11275E+08
</weights>
</event>
<event>
      7  10001  1.11453E+07  8.39878E+00 -1.00000E+00  2.04293E-01
       2    -1     0     0   501     0  0.000000000E+00  0.000000000E+00  4.578967693E+02  4.578967693E+02  0.000000000E+00  0.00000E+00  9.000E+00
      21    -1     0     0   511   501  0.000000000E+00  0.000000000E+00 -1.513919907E+00  1.513919907E+00  0.000000000E+00  0.00000E+00  9.000E+00
      23     2     1     2     0     0  8.264172426E-01  1.784561972E-01  1.735182044E+02  1.735239010E+02  1.123453125E+00  0.00000E+00  9.000E+00
      11     1     3     3     0     0  3.448025596E-01  6.079421919E-01  1.153491072E+02  1.153512246E+02  5.110000000E-04  0.00000E+00  9.000E+00
     -11     1     3     3     0     0  4.816146830E-01 -4.294859947E-01  5.816909718E+01  5.817267638E+01  5.110000000E-04  0.00000E+00  9.000E+00
       2     1     1     2   502     0  5.302059830E+00  5.564482830E+00  2.722164825E+02  2.723249688E+02  0.000000000E+00  0.00000E+00  9.000E+00
      21     1     1     2   511   502 -6.128477072E+00 -5.742939027E+00  1.064816244E+01  1.356181932E+01  6.848052319E-07  0.00000E+00  9.000E+00
#rwgt            1          24   6703288.2622211901                3    11011395           0
<weights>
0.11145E+08
0.12261E+08
0.98610E+07
0.13082E+08
0.90887E+07
0.10402E+08
0.12019E+08
0.11153E+08
0.11141E+08
0.10797E+08
0.10772E+08
0.10953E+08
0.10982E+08
0.10809E+08
0.10785E+08
0.11228E+08
0.11234E+08
0.11499E+08
0.11559E+08
0.11542E+08
0.11474E+08
0.11550E+08
0.11563E+08
0.11484E+08
0.11327E+08
0.11294E+08
0.11484E+08
0.11476E+08
0.11409E+08
0.11532E+08
0.11562E+08
0.11196E+08
0.11219E+08
0.11135E+08
0.11186E+08
0.11193E+08
0.11119E+08
0.11184E+08
0.11032E+08
0.11179E+08
0.11116E+08
0.11193E+08
0.11096E+08
0.11546E+08
0.10778E+08
</weights>
</event>
<event>
      6  10001 -1.11453E+07  8.94427E-01 -1.00000E+00  3.78393E-01
       2    -1     0     0   501     0  0.000000000E+00  0.000000000E+00  7.328355087E+02  7.328355087E+02  0.000000000E+00  0.00000E+00  9.000E+00
      21    -1     0     0   502   501  0.000000000E+00  0.000000000E+00 -2.500722210E-03  2.500722210E-03  0.000000000E+00  0.00000E+00  9.000E+00
      23     2     1     2     0     0  4.839231390E-01 -5.414184904E-01  6.510363235E+02  6.510381017E+02  1.337162311E+00  0.00000E+00  9.000E+00
      11     1     3     3     0     0  3.427373039E-01 -7.312688719E-02  3.879639907E+01  3.879798187E+01  5.110000000E-04  0.00000E+00  9.000E+00
     -11     1     3     3     0     0  1.411858352E-01 -4.682916032E-01  6.122399245E+02  6.122401199E+02  5.110000000E-04  0.00000E+00  9.000E+00
       2     1     1     2   502     0 -4.839231390E-01  5.414184904E-01  8.179668444E+01  8.179990771E+01  0.000000000E+00  0.00000E+00  9.000E+00
#rwgt            1          24  -34719532.244246624                3    11019458           0
<weights>
-.11145E+08
-.12076E+08
-.99163E+07
-.14697E+08
-.79462E+07
-.91580E+07
-.13909E+08
-.11184E+08
-.11106E+08
-.10845E+08
-.10846E+08
-.10970E+08
-.11025E+08
-.10866E+08
-.10855E+08
-.11223E+08
-.11193E+08
-.11431E+08
-.11463E+08
-.11454E+08
-.11410E+08
-.11462E+08
-.11488E+08
-.11359E+08
-.11329E+08
-.11281E+08
-.11267E+08
-.11401E+08
-.11342E+08
-.11437E+08
-.11475E+08
-.11173E+08
-.11216E+08
-.11140E+08
-.11171E+08
-.11219E+08
-.11089E+08
-.11090E+08
-.11125E+08
-.11156E+08
-.11137E+08
-.11179E+08
-.11110E+08
-.11473E+08
-.10843E+08
</weights>
</event>
<event>
      6  10001 -1.11453E+07  8.94427E-01 -1.00000E+00  6.07487E-01
      21    -1     0     0   502   501  0.000000000E+00  0.000000000E+00  5.601477268E-02  5.601477268E-02  0.000000000E+00  0.00000E+00  9.000E+00
      -2    -1     0     0     0   502  0.000000000E+00  0.000000000E+00 -1.734641395E+02  1.734641395E+02  0.000000000E+00  0.00000E+00  9.000E+00
      23     2     1     2     0     0  2.005572886E-01  1.697929776E-01 -1.670558302E+02  1.671624268E+02  5.963008996E+00  0.00000E+00  9.000E+00
      11     1     3     3     0     0  2.618981355E+00  5.592946573E-01 -1.290244064E+02  1.290521961E+02  5.110000000E-04  0.00000E+00  9.000E+00
     -11     1     3     3     0     0 -2.418424066E+00 -3.895016798E-01 -3.803142381E+01  3.811023070E+01  5.110000000E-04  0.00000E+00  9.000E+00
      -2     1     1     2     0   501 -2.005572886E-01 -1.697929776E-01 -6.352294502E+00  6.357727449E+00  0.000000000E+00  0.00000E+00  9.000E+00
#rwgt            1          14  -523517.44593646133                3    11020365           0
<weights>
-.11145E+08
-.89980E+07
-.13305E+08
-.13124E+08
-.91611E+07
-.76574E+07
-.16232E+08
-.11032E+08
-.11253E+08
-.11386E+08
-.11321E+08
-.11153E+08
-.11293E+08
-.11346E+08
-.11343E+08
-.11038E+08
-.11179E+08
-.11006E+08
-.10883E+08
-.10867E+08
-.11028E+08
-.10937E+08
-.10928E+08
-.11112E+08
-.10929E+08
-.10977E+08
-.11195E+08
-.10975E+08
-.10965E+08
-.10978E+08
-.10951E+08
-.11241E+08
-.10982E+08
-.11262E+08
-.11030E+08
-.11151E+08
-.11122E+08
-.11381E+08
-.10912E+08
-.11104E+08
-.11171E+08
-.11252E+08
-.11031E+08
-.10917E+08
-.11359E+08
</weights>
</event>
<event>
      6  10001 -1.11453E+07  8.94427E-01 -1.00000E+00  3.55768E-01
      21    -1     0     0   502   501  0.000000000E+00  0.000000000E+00  4.408779513E-03  4.408779513E-03  0.000000000E+00  0.00000E+00  9.000E+00
       2    -1     0     0   501     0  0.000000000E+00  0.000000000E+00 -4.829656049E+02  4.829656049E+02  0.000000000E+00  0.00000E+00  9.000E+00
      23     2     1     2     0     0 -2.894950053E-01  1.166659289E-01 -4.754188433E+02  4.754212055E+02  1.465841638E+00  0.00000E+00  9.000E+00
      11     1     3     3     0     0 -3.343681407E-01  6.751823673E-01 -3.779997549E+02  3.780005058E+02  5.110000000E-04  0.00000E+00  9.000E+00
     -11     1     3     3     0     0  4.487313542E-02 -5.585164384E-01 -9.741908833E+01  9.742069968E+01  5.110000000E-04  0.00000E+00  9.000E+00
       2     1     1     2   502     0  2.894950053E-01 -1.166659289E-01 -7.542352867E+00  7.548808188E+00  0.000000000E+00  0.00000E+00  9.000E+00
#rwgt            1          17  -31477848.926186133                3    11058661           0
<weights>
-.11145E+08
-.11338E+08
-.10840E+08
-.13780E+08
-.86857E+07
-.91702E+07
-.13910E+08
-.11130E+08
-.11160E+08
-.11165E+08
-.11150E+08
-.10981E+08
-.11331E+08
-.11156E+08
-.11152E+08
-.11270E+08
-.10955E+08
-.11478E+08
-.10674E+08
-.10607E+08
-.11517E+08
-.11109E+08
-.11171E+08
-.11038E+08
-.11214E+08
-.11356E+08
-.11013E+08
-.10737E+08
-.11594E+08
-.11066E+08
-.11190E+08
-.11029E+08
-.11260E+08
-.11528E+08
-.10676E+08
-.11094E+08
-.11191E+08
-.11145E+08
-.11151E+08
-.11258E+08
-.11044E+08
-.11133E+08
-.11158E+08
-.11133E+08
-.11158E+08
</weights>
</event>
<event>
      7  10001  1.11453E+07  2.21838E+00 -1.00000E+00  3.35758E-01
      -1    -1     0     0     0   501  0.000000000E+00  0.000000000E+00  5.273604269E+00  5.273604269E+00  0.000000000E+00  0.00000E+00  9.000E+00
      -2    -1     0     0     0   502  0.000000000E+00  0.000000000E+00 -5.554298052E+00  5.554298052E+00  0.000000000E+00  0.00000E+00  9.000E+00
      23     2     1     2     0     0 -7.428283144E-01  1.770349147E+00  1.904806861E-01  2.222166005E+00  1.102637226E+00  0.00000E+00  9.000E+00
      11     1     3     3     0     0 -2.221786656E-01 -1.088661146E-01 -6.416605379E-02  2.556026876E-01  5.110000000E-04  0.00000E+00  9.000E+00
     -11     1     3     3     0     0 -5.206496489E-01  1.879215262E+00  2.546467399E-01  1.966563317E+00  5.110000000E-04  0.00000E+00  9.000E+00
      -2     1     1     2     0   501  1.430314652E+00 -3.879508414E+00 -3.098650435E+00  5.167012682E+00  0.000000000E+00  0.00000E+00  9.000E+00
      -1     1     1     2     0   502 -6.874863377E-01  2.109159266E+00  2.627475966E+00  3.438723633E+00  0.000000000E+00  0.00000E+00  9.000E+00
#rwgt            1          14   654695.15197708691                3    11060627           0
<weights>
0.11145E+08
0.12771E+08
0.94959E+07
0.12685E+08
0.93952E+07
0.11059E+08
0.11011E+08
0.11067E+08
0.11220E+08
0.10830E+08
0.10804E+08
0.10984E+08
0.10957E+08
0.10840E+08
0.10817E+08
0.11136E+08
0.11348E+08
0.11499E+08
0.11453E+08
0.11434E+08
0.11485E+08
0.11508E+08
0.11522E+08
0.11397E+08
0.11316E+08
0.11439E+08
0.11017E+08
0.11501E+08
0.11253E+08
0.11493E+08
0.11502E+08
0.11128E+08
0.11273E+08
0.11174E+08
0.11145E+08
0.10945E+08
0.11371E+08
0.11114E+08
0.11070E+08
0.11166E+08
0.11121E+08
0.11243E+08
0.11041E+08
0.11504E+08
0.10817E+08
</weights>
</event>
<event>
      6  10001  1.11453E+07  8.94427E-01 -1.00000E+00  5.71007E-01
      21    -1     0     0   502   501  0.000000000E+00  0.000000000E+00  8.862781304E+00  8.862781304E+00  0.000000000E+00  0.00000E+00  9.000E+00
       2    -1     0     0   501     0  0.000000000E+00  0.000000000E+00 -1.059662985E-01  1.059662985E-01  0.000000000E+00  0.00000E+00  9.000E+00
      23     2     1     2     0     0 -4.819449337E-01  9.689703674E-02  3.613194371E+00  3.801689137E+00  1.075177556E+00  0.00000E+00  9.000E+00
      11     1     3     3     0     0 -4.128752907E-01  2.457698598E-01  3.605518776E+00  3.637393948E+00  5.110000000E-04  0.00000E+00  9.000E+00
     -11     1     3     3     0     0 -6.906964307E-02 -1.488728231E-01  7.675594718E-03  1.642951884E-01  5.110000000E-04  0.00000E+00  9.000E+00
       2     1     1     2   502     0  4.819449337E-01 -9.689703674E-02  5.143620635E+00  5.167058466E+00  0.000000000E+00  0.00000E+00  9.000E+00
#rwgt            1          17   474206.19876343792                3    11072692           0
<weights>
0.11145E+08
0.14869E+08
0.78748E+07
0.10847E+08
0.10476E+08
0.13784E+08
0.68268E+07
0.10646E+08
0.11802E+08
0.10766E+08
0.10673E+08
0.10977E+08
0.10873E+08
0.10756E+08
0.10694E+08
0.11145E+08
0.11418E+08
0.11604E+08
0.11617E+08
0.11583E+08
0.11584E+08
0.11668E+08
0.11627E+08
0.11685E+08
0.11225E+08
0.11391E+08
0.11420E+08
0.11630E+08
0.11390E+08
0.11676E+08
0.11646E+08
0.11166E+08
0.11284E+08
0.11128E+08
0.11212E+08
0.10821E+08
0.11539E+08
0.11327E+08
0.10900E+08
0.11200E+08
0.11094E+08
0.11259E+08
0.11025E+08
0.11625E+08
0.10712E+08
</weights>
</event>
<event>
      6  10001 -1.11453E+07  8.94427E-01 -1.00000E+00  3.74232E-01
      21    -1     0     0   502   501  0.000000000E+00  0.000000000E+00  2.296306022E-02  2.296306022E-02  0.000000000E+00  0.00000E+00  9.000E+00
       1    -1     0     0   501     0  0.000000000E+00  0.000000000E+00 -1.033753338E+02  1.033753338E+02  0.000000000E+00  0.00000E+00  9.000E+00
      23     2     1     2     0     0  1.966808640E-01 -4.768347237E-01 -4.200786878E+01  4.205162641E+01  1.847211281E+00  0.00000E+00  9.000E+00
      11     1     3     3     0     0  8.680408115E-01 -1.879715053E-01 -1.122493168E+01  1.126001419E+01  5.110000000E-04  0.00000E+00  9.000E+00
     -11     1     3     3     0     0 -6.713599475E-01 -2.888632184E-01 -3.078293710E+01  3.079161222E+01  5.110000000E-04  0.00000E+00  9.000E+00
       1     1     1     2   502     0 -1.966808640E-01  4.768347237E-01 -6.134450192E+01  6.134667041E+01  0.000000000E+00  0.00000E+00  9.000E+00
#rwgt            1          16  -542944.11828588322                3    11083201           0
<weights>
-.11145E+08
-.12661E+08
-.94111E+07
-.15388E+08
-.75407E+07
-.91702E+07
-.13910E+08
-.11214E+08
-.11077E+08
-.11161E+08
-.11171E+08
-.11134E+08
-.11112E+08
-.11178E+08
-.11182E+08
-.10569E+08
-.11779E+08
-.10830E+08
-.11366E+08
-.11383E+08
-.10798E+08
-.11137E+08
-.11051E+08
-.11263E+08
-.10956E+08
-.11022E+08
-.11186E+08
-.11223E+08
-.10839E+08
-.11133E+08
-.11079E+08
-.11104E+08
-.11171E+08
-.10849E+08
-.11403E+08
-.11081E+08
-.11195E+08
-.11088E+08
-.11222E+08
-.11178E+08
-.11105E+08
-.11224E+08
-.11060E+08
-.11109E+08
-.11174E+08
</weights>
</event>
<event>
      6  10001 -1.11453E+07  8.94427E-01 -1.00000E+00  5.57822E-01
       2    -1     0     0   501     0  0.000000000E+00  0.000000000E+00  7.531440031E+01  7.531440031E+01  0.000000000E+00  0.00000E+00  9.000E+00
      21    -1     0     0   502   501  0.000000000E+00  0.000000000E+00 -1.224669353E-02  1.224669353E-02  0.000000000E+00  0.00000E+00  9.000E+00
      23     2     1     2     0     0  2.131258154E-02  5.347790452E-01  3.652849881E+01  3.654929860E+01  1.110657162E+00  0.00000E+00  9.000E+00
      11     1     3     3     0     0  4.550265960E-01  2.226890528E-01  8.127052004E+00  8.142825932E+00  5.110000000E-04  0.00000E+00  9.000E+00
     -11     1     3     3     0     0 -4.337140145E-01  3.120899924E-01  2.840144681E+01  2.840647266E+01  5.110000000E-04  0.00000E+00  9.000E+00
       2     1     1     2   502     0 -2.131258154E-02 -5.347790452E-01  3.877365480E+01  3.877734841E+01  0.000000000E+00  0.00000E+00  9.000E+00
#rwgt            1          24  -3974907.4651619829                3    11085485           0
<weights>
-.11145E+08
-.12503E+08
-.96255E+07
-.15203E+08
-.77127E+07
-.91661E+07
-.13909E+08
-.11174E+08
-.11117E+08
-.10828E+08
-.10820E+08
-.10964E+08
-.11010E+08
-.10847E+08
-.10831E+08
-.11225E+08
-.11207E+08
-.11455E+08
-.11495E+08
-.11483E+08
-.11432E+08
-.11493E+08
-.11513E+08
-.11401E+08
-.11328E+08
-.11285E+08
-.11336E+08
-.11428E+08
-.11365E+08
-.11470E+08
-.11505E+08
-.11181E+08
-.11217E+08
-.11138E+08
-.11176E+08
-.11210E+08
-.11099E+08
-.11124E+08
-.11092E+08
-.11164E+08
-.11130E+08
-.11184E+08
-.11105E+08
-.11498E+08
-.10820E+08
</weights>
</event>
<event>
      7  10001  1.11453E+07  1.36862E+00 -1.00000E+00  4.54714E-01
      -1    -1     0     0     0   502  0.000000000E+00  0.000000000E+00  5.272307034E-01  5.272307034E-01  0.000000000E+00  0.00000E+00  9.000E+00
       1    -1     0     0   511     0  0.000000000E+00  0.000000000E+00 -5.308072267E+01  5.308072267E+01  0.000000000E+00  0.00000E+00  9.000E+00
      23     2     1     2     0     0 -1.662480159E+00 -7.626635647E-01 -1.195557712E+01  1.296689984E+01  4.675379262E+00  0.00000E+00  9.000E+00
      11     1     3     3     0     0  6.845675325E-01  7.927535809E-01 -4.822113339E-01  1.153091054E+00  5.110000000E-04  0.00000E+00  9.000E+00
     -11     1     3     3     0     0 -2.347047692E+00 -1.555417146E+00 -1.147336578E+01  1.181380878E+01  5.110000000E-04  0.00000E+00  9.000E+00
      21     1     1     2   501   502  5.018405437E-01  3.737894683E-02 -1.065886434E+01  1.067073709E+01  2.064765462E-07  0.00000E+00  9.000E+00
      21     1     1     2   511   501  1.160639616E+00  7.252846179E-01 -2.993905051E+01  2.997031644E+01  5.840038640E-07  0.00000E+00  9.000E+00
#rwgt            1          10   154156.15547280319                3    11088178           0
<weights>
0.11145E+08
0.12733E+08
0.95921E+07
0.11826E+08
0.10100E+08
0.11645E+08
0.10110E+08
0.11183E+08
0.11102E+08
0.10917E+08
0.10904E+08
0.10895E+08
0.11130E+08
0.10924E+08
0.10931E+08
0.11058E+08
0.11261E+08
0.11445E+08
0.11193E+08
0.11133E+08
0.11452E+08
0.11356E+08
0.11424E+08
0.11231E+08
0.11349E+08
0.11473E+08
0.10964E+08
0.11188E+08
0.11324E+08
0.11309E+08
0.11385E+08
0.11115E+08
0.11243E+08
0.11273E+08
0.10948E+08
0.10978E+08
0.11321E+08
0.10978E+08
0.11234E+08
0.11131E+08
0.11148E+08
0.11256E+08
0.11027E+08
0.11387E+08
0.10919E+08
</weights>
</event>
<event>
      6  10001 -1.11453E+07  8.94427E-01 -1.00000E+00  5.43225E-01
      -2    -1     0     0     0   502  0.000000000E+00  0.000000000E+00  6.337553769E+01  6.337553769E+01  0.000000000E+00  0.00000E+00  9.000E+00
      21    -1     0     0   502   501  0.000000000E+00  0.000000000E+00 -1.492461885E-02  1.492461885E-02  0.000000000E+00  0.00000E+00  9.000E+00
      23     2     1     2     0     0 -3.747974929E-01  4.136313925E-01  5.387919983E+01  5.389263302E+01  1.065906077E+00  0.00000E+00  9.000E+00
      11     1     3     3     0     0 -1.321477291E-02  4.247192118E-01  4.822529060E+01  4.822716262E+01  5.110000000E-04  0.00000E+00  9.000E+00
     -11     1     3     3     0     0 -3.615827200E-01 -1.108781934E-02  5.653909229E+00  5.665470398E+00  5.110000000E-04  0.00000E+00  9.000E+00
      -2     1     1     2     0   501  3.747974929E-01 -4.136313925E-01  9.481413243E+00  9.497829288E+00  0.000000000E+00  0.00000E+00  9.000E+00
#rwgt            1           7  -4641973.3923156885                3    11090218           0
<weights>
-.11145E+08
-.12495E+08
-.96527E+07
-.15195E+08
-.77345E+07
-.91652E+07
-.13909E+08
-.11180E+08
-.11111E+08
-.10840E+08
-.10839E+08
-.10968E+08
-.11020E+08
-.10861E+08
-.10849E+08
-.11223E+08
-.11197E+08
-.11437E+08
-.11473E+08
-.11463E+08
-.11415E+08
-.11470E+08
-.11495E+08
-.11374E+08
-.11328E+08
-.11280E+08
-.11301E+08
-.11408E+08
-.11349E+08
-.11445E+08
-.11483E+08
-.11175E+08
-.11217E+08
-.11140E+08
-.11172E+08
-.11216E+08
-.11093E+08
-.11098E+08
-.11119E+08
-.11158E+08
-.11135E+08
-.11181E+08
-.11108E+08
-.11480E+08
-.10836E+08
</weights>
</event>
<event>
      6  10001  1.11453E+07  8.94427E-01 -1.00000E+00  6.03125E-01
      -4    -1     0     0     0   502  0.000000000E+00  0.000000000E+00  5.265023267E+00  5.265023267E+00  0.000000000E+00  0.00000E+00  9.000E+00
      21    -1     0     0   502   501  0.000000000E+00  0.000000000E+00 -4.060933397E+00  4.060933397E+00  0.000000000E+00  0.00000E+00  9.000E+00
      23     2     1     2     0     0 -2.506621801E-01 -8.386253827E-03  5.164324478E+00  5.357788318E+00  1.404544941E+00  0.00000E+00  9.000E+00
      11     1     3     3     0     0  5.006648166E-01  1.199651809E-01  3.357945393E+00  3.397183308E+00  5.110000000E-04  0.00000E+00  9.000E+00
     -11     1     3     3     0     0 -7.513269967E-01 -1.283514348E-01  1.806379085E+00  1.960605011E+00  5.110000000E-04  0.00000E+00  9.000E+00
      -4     1     1     2     0   501  2.506621801E-01  8.386253827E-03 -3.960234609E+00  3.968168345E+00  0.000000000E+00  0.00000E+00  9.000E+00
#rwgt            1           3   3038985.2893251348                3    11092017           0
<weights>
0.11145E+08
0.12696E+08
0.93633E+07
0.13349E+08
0.88226E+07
0.10565E+08
0.11769E+08
0.11208E+08
0.11078E+08
0.10784E+08
0.10775E+08
0.10935E+08
0.10999E+08
0.10803E+08
0.10786E+08
0.11240E+08
0.11220E+08
0.11512E+08
0.11519E+08
0.11515E+08
0.11482E+08
0.11544E+08
0.11568E+08
0.11360E+08
0.11397E+08
0.11358E+08
0.11113E+08
0.11485E+08
0.11376E+08
0.11518E+08
0.11557E+08
0.11191E+08
0.11221E+08
0.11130E+08
0.11187E+08
0.11251E+08
0.11058E+08
0.11118E+08
0.11066E+08
0.11172E+08
0.11123E+08
0.11182E+08
0.11107E+08
0.11549E+08
0.10774E+08
</weights>
</event>
<event>
      6  10001 -1.11453E+07  8.94427E-01 -1.00000E+00  5.59817E-01
      21    -1     0     0   502   501  0.000000000E+00  0.000000000E+00  1.790911383E-02  1.790911383E-02  0.000000000E+00  0.00000E+00  9.000E+00
       3    -1     0     0   501     0  0.000000000E+00  0.000000000E+00 -7.402682144E+01  7.402682144E+01  0.000000000E+00  0.00000E+00  9.000E+00
      23     2     1     2     0     0 -4.688835835E-01  2.255990128E-01 -5.679780272E+01  5.682575728E+01  1.704567363E+00  0.00000E+00  9.000E+00
      11     1     3     3     0     0  2.051754744E-01  7.102600641E-01 -1.367972297E+01  1.369968566E+01  5.110000000E-04  0.00000E+00  9.000E+00
     -11     1     3     3     0     0 -6.740590578E-01 -4.846610513E-01 -4.311807975E+01  4.312607162E+01  5.110000000E-04  0.00000E+00  9.000E+00
       3     1     1     2   502     0  4.688835835E-01 -2.255990128E-01 -1.721110961E+01  1.721897328E+01  0.000000000E+00  0.00000E+00  9.000E+00
#rwgt            1          18  -688147.63207009865                3    11153485           0
<weights>
-.11145E+08
-.12487E+08
-.96528E+07
-.15177E+08
-.77343E+07
-.91702E+07
-.13910E+08
-.11147E+08
-.11142E+08
-.11056E+08
-.11206E+08
-.11350E+08
-.10858E+08
-.11160E+08
-.11145E+08
-.12295E+08
-.95930E+07
-.11488E+08
-.10590E+08
-.10623E+08
-.11410E+08
-.11087E+08
-.11148E+08
-.10401E+08
-.11719E+08
-.10335E+08
-.10937E+08
-.10254E+08
-.12139E+08
-.11007E+08
-.11182E+08
-.11212E+08
-.11070E+08
-.11221E+08
-.11076E+08
-.11220E+08
-.11074E+08
-.10972E+08
-.11353E+08
-.11095E+08
-.11181E+08
-.11241E+08
-.11043E+08
-.11142E+08
-.11135E+08
</weights>
</event>
<event>
      6  10001 -1.11453E+07  8.94427E-01 -1.00000E+00  2.05081E-01
       2    -1     0     0   501     0  0.000000000E+00  0.000000000E+00  5.126247022E+02  5.126247022E+02  0.000000000E+00  0.00000E+00  9.000E+00
      21    -1     0     0   502   501  0.000000000E+00  0.000000000E+00 -1.594368223E-03  1.594368223E-03  0.000000000E+00  0.00000E+00  9.000E+00
      23     2     1     2     0     0 -1.427388897E-01  4.092767468E-01  4.212303982E+02  4.212325590E+02  1.277717822E+00  0.00000E+00  9.000E+00
      11     1     3     3     0     0  2.241249538E-01 -2.311595268E-01  3.563625308E+01  3.563770756E+01  5.110000000E-04  0.00000E+00  9.000E+00
     -11     1     3     3     0     0 -3.668638435E-01  6.404362737E-01  3.855941451E+02  3.855948515E+02  5.110000000E-04  0.00000E+00  9.000E+00
       2     1     1     2   502     0  1.427388897E-01 -4.092767468E-01  9.139270969E+01  9.139373757E+01  0.000000000E+00  0.00000E+00  9.000E+00
#rwgt            1          24  -41450838.902017497                3    11155148           0
<weights>
-.11145E+08
-.17288E+08
-.33421E+07
-.21040E+08
-.26781E+07
-.91576E+07
-.13909E+08
-.11168E+08
-.11121E+08
-.10912E+08
-.10900E+08
-.10997E+08
-.11058E+08
-.10924E+08
-.10911E+08
-.11210E+08
-.11182E+08
-.11379E+08
-.11398E+08
-.11390E+08
-.11362E+08
-.11404E+08
-.11419E+08
-.11329E+08
-.11281E+08
-.11254E+08
-.11247E+08
-.11356E+08
-.11306E+08
-.11388E+08
-.11414E+08
-.11174E+08
-.11196E+08
-.11133E+08
-.11176E+08
-.11201E+08
-.11103E+08
-.11132E+08
-.11094E+08
-.11150E+08
-.11142E+08
-.11171E+08
-.11118E+08
-.11408E+08
-.10903E+08
</weights>
</event>
<event>
      6  10001 -1.11453E+07  8.94427E-01 -1.00000E+00  5.90575E-01
      -2    -1     0     0     0   502  0.000000000E+00  0.000000000E+00  3.976908602E+01  3.976908602E+01  0.000000000E+00  0.00000E+00  9.000E+00
      21    -1     0     0   502   501  0.000000000E+00  0.000000000E+00 -2.370040814E-02  2.370040814E-02  0.000000000E+00  0.00000E+00  9.000E+00
      23     2     1     2     0     0 -4.786518095E-01 -2.380665687E-02  3.496789798E+01  3.499132182E+01  1.187029593E+00  0.00000E+00  9.000E+00
      11     1     3     3     0     0 -1.314828840E-02 -1.025170945E-01  2.541433118E-01  2.743569139E-01  5.110000000E-04  0.00000E+00  9.000E+00
     -11     1     3     3     0     0 -4.655035211E-01  7.871043763E-02  3.471375467E+01  3.471696490E+01  5.110000000E-04  0.00000E+00  9.000E+00
      -2     1     1     2     0   501  4.786518095E-01  2.380665687E-02  4.777487637E+00  4.801464613E+00  0.000000000E+00  0.00000E+00  9.000E+00
#rwgt            1           7  -15022584.666774558                3    11157168           0
<weights>
-.11145E+08
-.12838E+08
-.92880E+07
-.15621E+08
-.74426E+07
-.91602E+07
-.13909E+08
-.11168E+08
-.11125E+08
-.10818E+08
-.10805E+08
-.10960E+08
-.11001E+08
-.10834E+08
-.10816E+08
-.11226E+08
-.11216E+08
-.11470E+08
-.11515E+08
-.11502E+08
-.11446E+08
-.11511E+08
-.11529E+08
-.11427E+08
-.11328E+08
-.11288E+08
-.11381E+08
-.11443E+08
-.11380E+08
-.11490E+08
-.11524E+08
-.11186E+08
-.11217E+08
-.11137E+08
-.11179E+08
-.11205E+08
-.11105E+08
-.11143E+08
-.11073E+08
-.11169E+08
-.11125E+08
-.11187E+08
-.11102E+08
-.11514E+08
-.10807E+08
</weights>
</event>
<event>
      6  10001 -1.11453E+07  8.94427E-01 -1.00000E+00  2.14039E-01
      -4    -1     0     0     0   502  0.000000000E+00  0.000000000E+00  3.903227668E+01  3.903227668E+01  0.000000000E+00  0.00000E+00  9.000E+00
       4    -1     0     0   501     0  0.000000000E+00  0.000000000E+00 -1.613881672E-02  1.613881672E-02  0.000000000E+00  0.00000E+00  9.000E+00
      23     2     1     2     0     0 -4.341105561E-02  3.379396306E-01  2.174448720E+01  2.177340452E+01  1.068799775E+00  0.00000E+00  9.000E+00
      11     1     3     3     0     0  3.645295465E-02  4.262733452E-01  2.146921779E+01  2.147348017E+01  5.110000000E-04  0.00000E+00  9.000E+00
     -11     1     3     3     0     0 -7.986401025E-02 -8.833371461E-02  2.752694056E-01  2.999243439E-01  5.110000000E-04  0.00000E+00  9.000E+00
      21     1     1     2   501   502  4.341105561E-02 -3.379396306E-01  1.727165066E+01  1.727501098E+01  2.384185791E-07  0.00000E+00  9.000E+00
#rwgt            1           4  -334308.32597664319                3    11158871           0
<weights>
-.11145E+08
-.13513E+08
-.86874E+07
-.16435E+08
-.69611E+07
-.91642E+07
-.13909E+08
-.11171E+08
-.11121E+08
-.10814E+08
-.10800E+08
-.10958E+08
-.10999E+08
-.10830E+08
-.10811E+08
-.11228E+08
-.11217E+08
-.11476E+08
-.11518E+08
-.11506E+08
-.11451E+08
-.11518E+08
-.11535E+08
-.11425E+08
-.11332E+08
-.11293E+08
-.11352E+08
-.11450E+08
-.11383E+08
-.11497E+08
-.11530E+08
-.11188E+08
-.11217E+08
-.11136E+08
-.11181E+08
-.11207E+08
-.11103E+08
-.11149E+08
-.11067E+08
-.11171E+08
-.11124E+08
-.11187E+08
-.11102E+08
-.11520E+08
-.10802E+08
</weights>
</event>
<event>
      6  10001 -1.11453E+07  8.94427E-01 -1.00000E+00  3.92921E-01
       1    -1     0     0   501     0  0.000000000E+00  0.000000000E+00  4.457500893E+02  4.457500893E+02  0.000000000E+00  0.00000E+00  9.000E+00
      21    -1     0     0   502   501  0.000000000E+00  0.000000000E+00 -4.632608816E-03  4.632608816E-03  0.000000000E+00  0.00000E+00  9.000E+00
      23     2     1     2     0     0  2.446993830E-01 -1.231914510E-01  4.409138858E+02  4.409153903E+02  1.118743581E+00  0.00000E+00  9.000E+00
      11     1     3     3     0     0 -6.843063528E-02 -1.351656247E-01  8.250093345E+00  8.251484288E+00  5.110000000E-04  0.00000E+00  9.000E+00
     -11     1     3     3     0     0  3.131300183E-01  1.197417369E-02  4.326637925E+02  4.326639060E+02  5.110000000E-04  0.00000E+00  9.000E+00
       1     1     1     2   502     0 -2.446993830E-01  1.231914510E-01  4.831570799E+00  4.839331597E+00  0.000000000E+00  0.00000E+00  9.000E+00
#rwgt            1          22  -4726990.6610632082                3    11159325           0
<weights>
-.11147E+08
-.11318E+08
-.10795E+08
-.13789E+08
-.86512E+07
-.91500E+07
-.13909E+08
-.11175E+08
-.11119E+08
-.10828E+08
-.10819E+08
-.10964E+08
-.11010E+08
-.10846E+08
-.10830E+08
-.11227E+08
-.11209E+08
-.11459E+08
-.11498E+08
-.11487E+08
-.11436E+08
-.11497E+08
-.11517E+08
-.11404E+08
-.11330E+08
-.11288E+08
-.11335E+08
-.11431E+08
-.11368E+08
-.11474E+08
-.11509E+08
-.11183E+08
-.11218E+08
-.11139E+08
-.11178E+08
-.11212E+08
-.11100E+08
-.11127E+08
-.11091E+08
-.11166E+08
-.11130E+08
-.11185E+08
-.11106E+08
-.11502E+08
-.10819E+08
</weights>
</event>
<event>
      6  10001  1.11453E+07  8.94427E-01 -1.00000E+00  4.27801E-01
       4    -1     0     0   501     0  0.000000000E+00  0.000000000E+00  1.215904581E-01  1.215904581E-01  0.000000000E+00  0.00000E+00  9.000E+00
      21    -1     0     0   502   501  0.000000000E+00  0.000000000E+00 -5.826773789E+00  5.826773789E+00  0.000000000E+00  0.00000E+00  9.000E+00
      23     2     1     2     0     0  1.156505306E-02 -3.127485431E-01 -2.837987013E+00  3.064138159E+00  1.112127227E+00  0.00000E+00  9.000E+00
      11     1     3     3     0     0  5.453129572E-01 -1.885645464E-02 -1.379714636E+00  1.483689498E+00  5.110000000E-04  0.00000E+00  9.000E+00
     -11     1     3     3     0     0 -5.337479042E-01 -2.938920885E-01 -1.458272377E+00  1.580448661E+00  5.110000000E-04  0.00000E+00  9.000E+00
       4     1     1     2   502     0 -1.156505306E-02  3.127485431E-01 -2.867196317E+00  2.884226088E+00  0.000000000E+00  0.00000E+00  9.000E+00
#rwgt            1          28   84715.649868194669                3    11163077           0
<weights>
0.11145E+08
0.32034E+08
-.67326E+07
-.13140E+07
0.16839E+08
0.34446E+08
-.24891E+08
0.11416E+08
0.10827E+08
0.83458E+07
0.78737E+07
0.97173E+07
0.96324E+07
0.81985E+07
0.79652E+07
0.11808E+08
0.12348E+08
0.14436E+08
0.14608E+08
0.14605E+08
0.14166E+08
0.14814E+08
0.14922E+08
0.13337E+08
0.13125E+08
0.13175E+08
0.10963E+08
0.14460E+08
0.13346E+08
0.14814E+08
0.14896E+08
0.11858E+08
0.11540E+08
0.10911E+08
0.11654E+08
0.11653E+08
0.10765E+08
0.12424E+08
0.87807E+07
0.11805E+08
0.10573E+08
0.11519E+08
0.10756E+08
0.14632E+08
0.80171E+07
</weights>
</event>
<event>
      6  10001 -1.11453E+07  8.94427E-01 -1.00000E+00  1.90960E-01
       2    -1     0     0   501     0  0.000000000E+00  0.000000000E+00  4.050116430E+02  4.050116430E+02  0.000000000E+00  0.00000E+00  9.000E+00
      21    -1     0     0   502   501  0.000000000E+00  0.000000000E+00 -3.000108184E-03  3.000108184E-03  0.000000000E+00  0.00000E+00  9.000E+00
      23     2     1     2     0     0  9.982387163E-02 -3.070544059E-01  3.869512732E+02  3.869543871E+02  1.518423781E+00  0.00000E+00  9.000E+00
      11     1     3     3     0     0 -5.094266772E-01 -8.919433554E-02  5.380366073E+01  5.380614630E+01  5.110000000E-04  0.00000E+00  9.000E+00
     -11     1     3     3     0     0  6.092505489E-01 -2.178600703E-01  3.331476125E+02  3.331482408E+02  5.110000000E-04  0.00000E+00  9.000E+00
       2     1     1     2   502     0 -9.982387163E-02  3.070544059E-01  1.805736966E+01  1.806025599E+01  0.000000000E+00  0.00000E+00  9.000E+00
#rwgt            1          24  -10429642.746354161                3    11195094           0
<weights>
-.11145E+08
-.11994E+08
-.10248E+08
-.14406E+08
-.82032E+07
-.92897E+07
-.13922E+08
-.11172E+08
-.11120E+08
-.10825E+08
-.10816E+08
-.10963E+08
-.11008E+08
-.10843E+08
-.10826E+08
-.11225E+08
-.11210E+08
-.11459E+08
-.11501E+08
-.11489E+08
-.11436E+08
-.11498E+08
-.11518E+08
-.11409E+08
-.11328E+08
-.11286E+08
-.11349E+08
-.11432E+08
-.11370E+08
-.11476E+08
-.11511E+08
-.11183E+08
-.11217E+08
-.11138E+08
-.11177E+08
-.11209E+08
-.11101E+08
-.11129E+08
-.11087E+08
-.11165E+08
-.11128E+08
-.11185E+08
-.11104E+08
-.11503E+08
-.10816E+08
</weights>
</event>
<event>
      6  10001  1.11453E+07  8.94427E-01 -1.00000E+00  5.82335E-01
       2    -1     0     0   501     0  0.000000000E+00  0.000000000E+00  2.089489475E+01  2.089489475E+01  0.000000000E+00  0.00000E+00  9.000E+00
      -2    -1     0     0     0   502  0.000000000E+00  0.000000000E+00 -1.674989355E-01  1.674989355E-01  0.000000000E+00  0.00000E+00  9.000E+00
      23     2     1     2     0     0 -3.099967066E-01  3.583889802E-01  1.994681439E+01  2.014924092E+01  2.809264056E+00  0.00000E+00  9.000E+00
      11     1     3     3     0     0 -2.551970374E-01 -9.023382671E-01  2.736221169E+00  2.892446443E+00  5.110000000E-04  0.00000E+00  9.000E+00
     -11     1     3     3     0     0 -5.479966924E-02  1.260727247E+00  1.721059322E+01  1.725679448E+01  5.110000000E-04  0.00000E+00  9.000E+00
      21     1     1     2   501   502  3.099967066E-01 -3.583889802E-01  7.805814166E-01  9.131527622E-01  1.825012075E-08  0.00000E+00  9.000E+00
#rwgt            1          23   622369.51243053796                3    11197494           0
<weights>
0.11145E+08
0.13935E+08
0.86314E+07
0.11024E+08
0.10529E+08
0.13039E+08
0.79712E+07
0.10756E+08
0.11642E+08
0.10776E+08
0.10699E+08
0.10972E+08
0.10898E+08
0.10771E+08
0.10718E+08
0.11161E+08
0.11377E+08
0.11585E+08
0.11582E+08
0.11554E+08
0.11564E+08
0.11636E+08
0.11607E+08
0.11619E+08
0.11246E+08
0.11386E+08
0.11335E+08
0.11593E+08
0.11383E+08
0.11638E+08
0.11621E+08
0.11165E+08
0.11275E+08
0.11135E+08
0.11199E+08
0.10886E+08
0.11463E+08
0.11288E+08
0.10936E+08
0.11194E+08
0.11099E+08
0.11247E+08
0.11038E+08
0.11603E+08
0.10730E+08
</weights>
</event>
<event>
      6  10001 -1.11453E+07  8.94427E-01 -1.00000E+00  1.60971E-01
      21    -1     0     0   502   501  0.000000000E+00  0.000000000E+00  5.121137709E-03  5.121137709E-03  0.000000000E+00  0.00000E+00  9.000E+00
       2    -1     0     0   501     0  0.000000000E+00  0.000000000E+00 -1.323851219E+02  1.323851219E+02  0.000000000E+00  0.00000E+00  9.000E+00
      23     2     1     2     0     0  2.523761678E-01 -1.403273148E-01 -1.234727089E+02  1.234782716E+02  1.135933097E+00  0.00000E+00  9.000E+00
      11     1     3     3     0     0 -2.610785231E-01  3.635697885E-01 -4.190968000E+01  4.191207013E+01  5.110000000E-04  0.00000E+00  9.000E+00
     -11     1     3     3     0     0  5.134546908E-01 -5.038971033E-01 -8.156302887E+01  8.156620150E+01  5.110000000E-04  0.00000E+00  9.000E+00
       2     1     1     2   502     0 -2.523761678E-01  1.403273148E-01 -8.907291942E+00  8.911971455E+00  0.000000000E+00  0.00000E+00  9.000E+00
#rwgt            1          17  -6592362.2030483708                3    11199870           0
<weights>
-.11145E+08
-.12260E+08
-.98908E+07
-.14901E+08
-.79251E+07
-.91702E+07
-.13910E+08
-.11140E+08
-.11149E+08
-.11166E+08
-.11172E+08
-.11142E+08
-.11151E+08
-.11173E+08
-.11172E+08
-.11235E+08
-.10981E+08
-.11135E+08
-.11078E+08
-.11075E+08
-.11135E+08
-.11108E+08
-.11119E+08
-.11216E+08
-.11023E+08
-.11079E+08
-.11172E+08
-.11142E+08
-.11059E+08
-.11116E+08
-.11116E+08
-.11102E+08
-.11177E+08
-.11138E+08
-.11145E+08
-.11139E+08
-.11146E+08
-.11153E+08
-.11142E+08
-.11123E+08
-.11161E+08
-.11183E+08
-.11105E+08
-.11115E+08
-.11171E+08
</weights>
</event>
<event>
      6  10001 -1.11453E+07  8.94427E-01 -1.00000E+00  3.70941E-01
      21    -1     0     0   502   501  0.000000000E+00  0.000000000E+00  7.393688335E-03  7.393688335E-03  0.000000000E+00  0.00000E+00  9.000E+00
       2    -1     0     0   501     0  0.000000000E+00  0.000000000E+00 -2.420782979E+02  2.420782979E+02  0.000000000E+00  0.00000E+00  9.000E+00
      23     2     1     2     0     0  6.062758839E-01 -8.404026786E-01 -1.709664879E+02  1.709737245E+02  1.183482284E+00  0.00000E+00  9.000E+00
      11     1     3     3     0     0  8.191229764E-01 -8.986252040E-01 -1.079080149E+02  1.079148654E+02  5.110000000E-04  0.00000E+00  9.000E+00
     -11     1     3     3     0     0 -2.128470925E-01  5.822252539E-02 -6.305847295E+01  6.305885905E+01  5.110000000E-04  0.00000E+00  9.000E+00
       2     1     1     2   502     0 -6.062758839E-01  8.404026786E-01 -7.110441634E+01  7.111196714E+01  0.000000000E+00  0.00000E+00  9.000E+00
#rwgt            1          17  -15647427.916251622                3    11200213           0
<weights>
-.11145E+08
-.12125E+08
-.99932E+07
-.14736E+08
-.80070E+07
-.91702E+07
-.13910E+08
-.11128E+08
-.11162E+08
-.11172E+08
-.11166E+08
-.11082E+08
-.11225E+08
-.11169E+08
-.11167E+08
-.11322E+08
-.10871E+08
-.11275E+08
-.10907E+08
-.10880E+08
-.11289E+08
-.11103E+08
-.11145E+08
-.11160E+08
-.11078E+08
-.11158E+08
-.11127E+08
-.10985E+08
-.11265E+08
-.11097E+08
-.11146E+08
-.11049E+08
-.11234E+08
-.11272E+08
-.10976E+08
-.11134E+08
-.11152E+08
-.11171E+08
-.11120E+08
-.11176E+08
-.11115E+08
-.11160E+08
-.11129E+08
-.11119E+08
-.11170E+08
</weights>
</event>
<event>
      6  10001 -1.11453E+07  8.94427E-01 -1.00000E+00  5.83797E-01
      -4    -1     0     0     0   502  0.000000000E+00  0.000000000E+00  1.682634777E+02  1.682634777E+02  0.000000000E+00  0.00000E+00  9.000E+00
      21    -1     0     0   502   501  0.000000000E+00  0.000000000E+00 -1.423136903E-02  1.423136903E-02  0.000000000E+00  0.00000E+00  9.000E+00
      23     2     1     2     0     0  2.771843235E-01  1.658514601E-01  1.650328310E+02  1.650451148E+02  1.987533024E+00  0.00000E+00  9.000E+00
      11     1     3     3     0     0  1.097920108E+00  3.821445064E-01  9.927765702E+01  9.928446327E+01  5.110000000E-04  0.00000E+00  9.000E+00
     -11     1     3     3     0     0 -8.207357847E-01 -2.162930463E-01  6.575517395E+01  6.576065154E+01  5.110000000E-04  0.00000E+00  9.000E+00
      -4     1     1     2     0   501 -2.771843235E-01 -1.658514601E-01  3.216415379E+00  3.232594275E+00  0.000000000E+00  0.00000E+00  9.000E+00
#rwgt            1           3  -1673182.7085336165                3    11200822           0
<weights>
-.11145E+08
-.12210E+08
-.98278E+07
-.14846E+08
-.78748E+07
-.91668E+07
-.13909E+08
-.11175E+08
-.11116E+08
-.10828E+08
-.10820E+08
-.10963E+08
-.11010E+08
-.10847E+08
-.10831E+08
-.11226E+08
-.11207E+08
-.11456E+08
-.11494E+08
-.11483E+08
-.11433E+08
-.11493E+08
-.11513E+08
-.11398E+08
-.11329E+08
-.11286E+08
-.11324E+08
-.11428E+08
-.11365E+08
-.11470E+08
-.11505E+08
-.11181E+08
-.11217E+08
-.11138E+08
-.11176E+08
-.11211E+08
-.11098E+08
-.11124E+08
-.11093E+08
-.11164E+08
-.11130E+08
-.11184E+08
-.11105E+08
-.11498E+08
-.10820E+08
</weights>
</event>
<event>
      6  10001 -1.11453E+07  8.94427E-01 -1.00000E+00  1.75992E-01
       2    -1     0     0   501     0  0.000000000E+00  0.000000000E+00  2.578596890E+02  2.578596890E+02  0.000000000E+00  0.00000E+00  9.000E+00
      21    -1     0     0   502   501  0.000000000E+00  0.000000000E+00 -4.997510574E-03  4.997510574E-03  0.000000000E+00  0.00000E+00  9.000E+00
      23     2     1     2     0     0  4.929760844E-02 -3.118602284E-01  2.406517580E+02  2.406588559E+02  1.821152872E+00  0.00000E+00  9.000E+00
      11     1     3     3     0     0  1.491234495E-01 -8.133667052E-01  5.342220729E+01  5.342860690E+01  5.110000000E-04  0.00000E+00  9.000E+00
     -11     1     3     3     0     0 -9.982584108E-02  5.015064768E-01  1.872295507E+02  1.872302490E+02  5.110000000E-04  0.00000E+00  9.000E+00
       2     1     1     2   502     0 -4.929760844E-02  3.118602284E-01  1.720293344E+01  1.720583059E+01  0.000000000E+00  0.00000E+00  9.000E+00
#rwgt            1          24  -15207994.550869998                3    11202689           0
<weights>
-.11145E+08
-.11722E+08
-.10417E+08
-.14252E+08
-.83471E+07
-.91675E+07
-.13910E+08
-.11176E+08
-.11115E+08
-.10831E+08
-.10825E+08
-.10965E+08
-.11013E+08
-.10850E+08
-.10835E+08
-.11225E+08
-.11204E+08
-.11451E+08
-.11489E+08
-.11478E+08
-.11429E+08
-.11488E+08
-.11509E+08
-.11392E+08
-.11328E+08
-.11285E+08
-.11318E+08
-.11423E+08
-.11361E+08
-.11464E+08
-.11500E+08
-.11180E+08
-.11216E+08
-.11138E+08
-.11175E+08
-.11212E+08
-.11097E+08
-.11118E+08
-.11098E+08
-.11163E+08
-.11131E+08
-.11183E+08
-.11106E+08
-.11494E+08
-.10824E+08
</weights>
</event>
<event>
      7  10001  1.11453E+07  9.53882E-01 -1.00000E+00  5.81178E-01
      21    -1     0     0   502   501  0.000000000E+00  0.000000000E+00  1.883676050E+00  1.883676050E+00  0.000000000E+00  0.00000E+00  9.000E+00
       4    -1     0     0   501     0  0.000000000E+00  0.000000000E+00 -2.056618747E+01  2.056618747E+01  0.000000000E+00  0.00000E+00  9.000E+00
      23     2     1     2     0     0 -2.598257490E-01 -1.131591942E-01 -9.512708015E+00  1.327092698E+01  9.249085076E+00  0.00000E+00  9.000E+00
      11     1     3     3     0     0  8.461167768E-01  1.203975504E+00 -1.093841965E+01  1.103696042E+01  5.110000000E-04  0.00000E+00  9.000E+00
     -11     1     3     3     0     0 -1.105942526E+00 -1.317134698E+00  1.425711633E+00  2.233966563E+00  5.110000000E-04  0.00000E+00  9.000E+00
       4     1     1     2   511     0  3.033962968E-03 -7.083466242E-02 -7.883047657E-01  7.914866758E-01  0.000000000E+00  0.00000E+00  9.000E+00
      21     1     1     2   502   511  2.567917861E-01  1.839938566E-01 -8.381498641E+00  8.387449864E+00  1.192092896E-07  0.00000E+00  9.000E+00
#rwgt            2         195   64330.431584661092                3    11205523           0
<weights>
0.11145E+08
0.11088E+08
0.10940E+08
0.13475E+08
0.87656E+07
0.91702E+07
0.13910E+08
0.11242E+08
0.11047E+08
0.10845E+08
0.10912E+08
0.10946E+08
0.11089E+08
0.10896E+08
0.10913E+08
0.11203E+08
0.11172E+08
0.11366E+08
0.11396E+08
0.11391E+08
0.11352E+08
0.11375E+08
0.11437E+08
0.11211E+08
0.11395E+08
0.11358E+08
0.11040E+08
0.11352E+08
0.11231E+08
0.11321E+08
0.11390E+08
0.11119E+08
0.11246E+08
0.11159E+08
0.11141E+08
0.11310E+08
0.10999E+08
0.10853E+08
0.11371E+08
0.11113E+08
0.11176E+08
0.11145E+08
0.11146E+08
0.11421E+08
0.10882E+08
</weights>
</event>
<event>
      6  10001 -1.11453E+07  8.94427E-01 -1.00000E+00  1.58695E-01
      -4    -1     0     0     0   502  0.000000000E+00  0.000000000E+00  1.382558468E-02  1.382558468E-02  0.000000000E+00  0.00000E+00  9.000E+00
       4    -1     0     0   501     0  0.000000000E+00  0.000000000E+00 -3.958542634E+01  3.958542634E+01  0.000000000E+00  0.00000E+00  9.000E+00
      23     2     1     2     0     0  1.820474439E-01 -2.795008603E-01 -2.987459828E+01  2.989651422E+01  1.094841532E+00  0.00000E+00  9.000E+00
      11     1     3     3     0     0  2.766608896E-01 -2.195287300E-01 -2.956772466E+01  2.956983389E+01  5.110000000E-04  0.00000E+00  9.000E+00
     -11     1     3     3     0     0 -9.461344570E-02 -5.997213026E-02 -3.068736194E-01  3.266803329E-01  5.110000000E-04  0.00000E+00  9.000E+00
      21     1     1     2   501   502 -1.820474439E-01  2.795008603E-01 -9.697002470E+00  9.702737702E+00  2.064765462E-07  0.00000E+00  9.000E+00
#rwgt            1           4  -435105.36774010537                3    11206952           0
<weights>
-.11145E+08
-.13306E+08
-.88879E+07
-.16171E+08
-.71214E+07
-.91702E+07
-.13910E+08
-.11240E+08
-.11051E+08
-.10915E+08
-.11005E+08
-.10963E+08
-.11154E+08
-.10989E+08
-.11008E+08
-.11187E+08
-.11121E+08
-.11267E+08
-.11273E+08
-.11267E+08
-.11263E+08
-.11266E+08
-.11302E+08
-.11157E+08
-.11316E+08
-.11284E+08
-.11067E+08
-.11252E+08
-.11157E+08
-.11204E+08
-.11275E+08
-.11091E+08
-.11241E+08
-.11170E+08
-.11121E+08
-.11311E+08
-.10997E+08
-.10776E+08
-.11518E+08
-.11072E+08
-.11214E+08
-.11126E+08
-.11167E+08
-.11320E+08
-.10968E+08
</weights>
</event>
<event>
      6  10001 -1.11453E+07  8.94427E-01 -1.00000E+00  1.64460E-01
      21    -1     0     0   502   501  0.000000000E+00  0.000000000E+00  1.630202816E-02  1.630202816E-02  0.000000000E+00  0.00000E+00  9.000E+00
       1    -1     0     0   501     0  0.000000000E+00  0.000000000E+00 -4.063313582E+02  4.063313582E+02  0.000000000E+00  0.00000E+00  9.000E+00
      23     2     1     2     0     0  3.487829149E-01 -1.547407527E-02 -3.859505260E+02  3.859801376E+02  4.768250366E+00  0.00000E+00  9.000E+00
      11     1     3     3     0     0  4.912794857E-01  1.145074932E+00 -2.800871520E+01  2.803641703E+01  5.110000000E-04  0.00000E+00  9.000E+00
     -11     1     3     3     0     0 -1.424965708E-01 -1.160549007E+00 -3.579418108E+02  3.579437206E+02  5.110000000E-04  0.00000E+00  9.000E+00
       1     1     1     2   502     0 -3.487829149E-01  1.547407527E-02 -2.036453016E+01  2.036752262E+01  0.000000000E+00  0.00000E+00  9.000E+00
#rwgt            1          16  -3915555.2728517493                3    11207073           0
<weights>
-.11145E+08
-.11335E+08
-.10871E+08
-.13777E+08
-.87107E+07
-.91702E+07
-.13910E+08
-.11285E+08
-.11014E+08
-.11102E+08
-.11313E+08
-.11863E+08
-.10404E+08
-.11174E+08
-.11188E+08
-.10205E+08
-.12268E+08
-.10097E+08
-.12442E+08
-.12673E+08
-.99486E+07
-.11201E+08
-.10992E+08
-.11597E+08
-.10612E+08
-.10416E+08
-.11578E+08
-.12239E+08
-.98111E+07
-.11310E+08
-.10969E+08
-.10997E+08
-.11286E+08
-.10086E+08
-.12352E+08
-.11172E+08
-.11118E+08
-.11158E+08
-.11148E+08
-.11345E+08
-.10962E+08
-.11172E+08
-.11115E+08
-.11100E+08
-.11190E+08
</weights>
</event>
<event>
      6  10001 -1.11453E+07  8.94427E-01 -1.00000E+00  3.27929E-01
       2    -1     0     0   501     0  0.000000000E+00  0.000000000E+00  4.567062830E+02  4.567062830E+02  0.000000000E+00  0.00000E+00  9.000E+00
      21    -1     0     0   502   501  0.000000000E+00  0.000000000E+00 -8.675632344E-03  8.675632344E-03  0.000000000E+00  0.00000E+00  9.000E+00
      23     2     1     2     0     0 -2.756349446E-01  2.513234092E-02  4.543307061E+02  4.543319295E+02  1.017372889E+00  0.00000E+00  9.000E+00
      11     1     3     3     0     0  1.499925843E-01 -2.442818322E-01  4.497759076E+01  4.497850423E+01  5.110000000E-04  0.00000E+00  9.000E+00
     -11     1     3     3     0     0 -4.256275288E-01  2.694141731E-01  4.093531153E+02  4.093534252E+02  5.110000000E-04  0.00000E+00  9.000E+00
       2     1     1     2   502     0  2.756349446E-01 -2.513234092E-02  2.366901311E+00  2.383029180E+00  0.000000000E+00  0.00000E+00  9.000E+00
#rwgt            1          24  -107310791.80992796                3    11207220           0
<weights>
-.11145E+08
-.11130E+08
-.11018E+08
-.13533E+08
-.88282E+07
-.91664E+07
-.13909E+08
-.11177E+08
-.11114E+08
-.10831E+08
-.10825E+08
-.10965E+08
-.11013E+08
-.10851E+08
-.10835E+08
-.11225E+08
-.11204E+08
-.11451E+08
-.11487E+08
-.11477E+08
-.11428E+08
-.11487E+08
-.11508E+08
-.11389E+08
-.11329E+08
-.11285E+08
-.11310E+08
-.11423E+08
-.11360E+08
-.11464E+08
-.11500E+08
-.11180E+08
-.11216E+08
-.11138E+08
-.11175E+08
-.11213E+08
-.11096E+08
-.11118E+08
-.11099E+08
-.11163E+08
-.11131E+08
-.11183E+08
-.11106E+08
-.11493E+08
-.10825E+08
</weights>
</event>
<event>
      7  10001  1.11453E+07  1.83652E+00 -1.00000E+00  3.70550E-01
       2    -1     0     0   501     0  0.000000000E+00  0.000000000E+00  5.589938454E-01  5.589938454E-01  0.000000000E+00  0.00000E+00  9.000E+00
      21    -1     0     0   502   511  0.000000000E+00  0.000000000E+00 -3.961477393E+02  3.961477393E+02  0.000000000E+00  0.00000E+00  9.000E+00
      23     2     1     2     0     0 -1.069561341E-01 -1.219414606E+00 -5.232363288E+00  6.112134004E+00  2.912412216E+00  0.00000E+00  9.000E+00
      11     1     3     3     0     0 -1.094433630E+00 -1.538141833E+00 -2.156876368E+00  2.866318405E+00  5.110000000E-04  0.00000E+00  9.000E+00
     -11     1     3     3     0     0  9.874774957E-01  3.187272277E-01 -3.075486920E+00  3.245815600E+00  5.110000000E-04  0.00000E+00  9.000E+00
       2     1     1     2   502     0 -1.564352616E+00  4.581534469E-01 -5.564676103E+00  5.798510483E+00  0.000000000E+00  0.00000E+00  9.000E+00
      21     1     1     2   501   511  1.671308750E+00  7.612611588E-01 -3.847917060E+02  3.847960886E+02  5.394796609E-06  0.00000E+00  9.000E+00
#rwgt            1          24   814334.31905056711                3    11207690           0
<weights>
0.11145E+08
0.12714E+08
0.95287E+07
0.12110E+08
0.98262E+07
0.11435E+08
0.10434E+08
0.11233E+08
0.11052E+08
0.10710E+08
0.10713E+08
0.10896E+08
0.10972E+08
0.10729E+08
0.10721E+08
0.11249E+08
0.11249E+08
0.11573E+08
0.11603E+08
0.11601E+08
0.11539E+08
0.11608E+08
0.11665E+08
0.11366E+08
0.11482E+08
0.11437E+08
0.11050E+08
0.11551E+08
0.11400E+08
0.11572E+08
0.11627E+08
0.11188E+08
0.11245E+08
0.11132E+08
0.11187E+08
0.11290E+08
0.11022E+08
0.11059E+08
0.11072E+08
0.11181E+08
0.11115E+08
0.11184E+08
0.11105E+08
0.11624E+08
0.10706E+08
</weights>
</event>
<event>
      6  10001 -1.11453E+07  8.94427E-01 -1.00000E+00  4.40189E-01
      -1    -1     0     0     0   502  0.000000000E+00  0.000000000E+00  1.170044502E+02  1.170044502E+02  0.000000000E+00  0.00000E+00  9.000E+00
      21    -1     0     0   502   501  0.000000000E+00  0.000000000E+00 -1.369101811E-02  1.369101811E-02  0.000000000E+00  0.00000E+00  9.000E+00
      23     2     1     2     0     0  9.446147417E-02  5.578523011E-01  1.073402116E+02  1.073510222E+02  1.414500382E+00  0.00000E+00  9.000E+00
      11     1     3     3     0     0 -1.080098696E-01  9.256435635E-01  4.636257972E+01  4.637194497E+01  5.110000000E-04  0.00000E+00  9.000E+00
     -11     1     3     3     0     0  2.024713438E-01 -3.677912624E-01  6.097763188E+01  6.097907719E+01  5.110000000E-04  0.00000E+00  9.000E+00
      -1     1     1     2     0   501 -9.446147417E-02 -5.578523011E-01  9.650547552E+00  9.667119024E+00  0.000000000E+00  0.00000E+00  9.000E+00
#rwgt            1           9  -1481216.2351603194                3    11261350           0
<weights>
-.11145E+08
-.13047E+08
-.89077E+07
-.15862E+08
-.71375E+07
-.91671E+07
-.13909E+08
-.11151E+08
-.11141E+08
-.10930E+08
-.10902E+08
-.11011E+08
-.11057E+08
-.10927E+08
-.10914E+08
-.11197E+08
-.11205E+08
-.11373E+08
-.11413E+08
-.11403E+08
-.11357E+08
-.11404E+08
-.11422E+08
-.11358E+08
-.11261E+08
-.11247E+08
-.11315E+08
-.11362E+08
-.11310E+08
-.11396E+08
-.11414E+08
-.11179E+08
-.11191E+08
-.11131E+08
-.11179E+08
-.11182E+08
-.11122E+08
-.11185E+08
-.11044E+08
-.11162E+08
-.11132E+08
-.11170E+08
-.11119E+08
-.11402E+08
-.10912E+08
</weights>
</event>
<event>
      6  10001  1.11453E+07  8.94427E-01 -1.00000E+00  5.92220E-01
       3    -1     0     0   501     0  0.000000000E+00  0.000000000E+00  3.707099157E+01  3.707099157E+01  0.000000000E+00  0.00000E+00  9.000E+00
      -3    -1     0     0     0   502  0.000000000E+00  0.000000000E+00 -3.984345354E-02  3.984345354E-02  0.000000000E+00  0.00000E+00  9.000E+00
      23     2     1     2     0     0 -5.920670412E-01  3.271027915E-01  2.439422836E+01  2.445582493E+01  1.597327754E+00  0.00000E+00  9.000E+00
      11     1     3     3     0     0 -1.447007293E-01 -3.404498459E-01  1.415189024E+00  1.462738744E+00  5.110000000E-04  0.00000E+00  9.000E+00
     -11     1     3     3     0     0 -4.473663119E-01  6.675526373E-01  2.297903934E+01  2.299308618E+01  5.110000000E-04  0.00000E+00  9.000E+00
      21     1     1     2   501   502  5.920670412E-01 -3.271027915E-01  1.263691976E+01  1.265501010E+01  0.000000000E+00  0.00000E+00  9.000E+00
#rwgt            1          25   55035.963516165968                3    11261571           0
<weights>
0.11145E+08
0.13969E+08
0.86014E+07
0.11665E+08
0.99351E+07
0.12549E+08
0.87223E+07
0.11131E+08
0.11164E+08
0.10748E+08
0.10703E+08
0.10974E+08
0.10897E+08
0.10749E+08
0.10720E+08
0.11167E+08
0.11344E+08
0.11365E+08
0.12338E+08
0.12106E+08
0.11365E+08
0.11618E+08
0.11667E+08
0.13005E+08
0.11012E+08
0.10928E+08
0.18560E+08
0.11409E+08
0.11725E+08
0.11613E+08
0.11664E+08
0.11244E+08
0.11198E+08
0.11138E+08
0.11192E+08
0.11173E+08
0.11142E+08
0.11296E+08
0.10921E+08
0.11209E+08
0.11089E+08
0.11217E+08
0.11070E+08
0.11619E+08
0.10715E+08
</weights>
</event>
<event>
      6  10001 -1.11453E+07  8.94427E-01 -1.00000E+00  1.63215E-01
      21    -1     0     0   502   501  0.000000000E+00  0.000000000E+00  1.720790479E-02  1.720790479E-02  0.000000000E+00  0.00000E+00  9.000E+00
       2    -1     0     0   501     0  0.000000000E+00  0.000000000E+00 -3.563038303E+01  3.563038303E+01  0.000000000E+00  0.00000E+00  9.000E+00
      23     2     1     2     0     0  2.953433769E-01  3.362578564E-02 -3.288071210E+01  3.289900719E+01  1.055977109E+00  0.00000E+00  9.000E+00
      11     1     3     3     0     0  6.213148690E-01  1.827668158E-01 -2.673947857E+01  2.674732044E+01  5.110000000E-04  0.00000E+00  9.000E+00
     -11     1     3     3     0     0 -3.259714921E-01 -1.491410301E-01 -6.141233525E+00  6.151686755E+00  5.110000000E-04  0.00000E+00  9.000E+00
       2     1     1     2   502     0 -2.953433769E-01 -3.362578564E-02 -2.732463030E+00  2.748583747E+00  0.000000000E+00  0.00000E+00  9.000E+00
#rwgt            1          17  -6730651.2578138635                3    11265007           0
<weights>
-.11145E+08
-.12744E+08
-.94360E+07
-.15488E+08
-.75606E+07
-.91702E+07
-.13910E+08
-.11195E+08
-.11095E+08
-.11033E+08
-.11077E+08
-.11130E+08
-.11040E+08
-.11067E+08
-.11076E+08
-.11088E+08
-.11236E+08
-.11109E+08
-.11351E+08
-.11362E+08
-.11098E+08
-.11215E+08
-.11219E+08
-.11238E+08
-.11156E+08
-.11158E+08
-.11135E+08
-.11347E+08
-.10951E+08
-.11208E+08
-.11192E+08
-.11144E+08
-.11166E+08
-.11072E+08
-.11252E+08
-.11115E+08
-.11178E+08
-.11000E+08
-.11283E+08
-.11080E+08
-.11198E+08
-.11210E+08
-.11076E+08
-.11230E+08
-.11060E+08
</weights>
</event>
<event>
      7  10001  1.11453E+07  1.16203E+01 -1.00000E+00  1.88108E-01
       2    -1     0     0   501     0  0.000000000E+00  0.000000000E+00  5.039116228E+02  5.039116228E+02  0.000000000E+00  0.00000E+00  9.000E+00
      21    -1     0     0   502   501  0.000000000E+00  0.000000000E+00 -7.291025681E-02  7.291025681E-02  0.000000000E+00  0.00000E+00  9.000E+00
      23     2     1     2     0     0  1.819196763E+00  1.809357672E+00  1.365399229E+02  1.365700149E+02  1.278742265E+00  0.00000E+00  9.000E+00
      11     1     3     3     0     0  1.936977285E+00  1.465985335E+00  1.269209852E+02  1.269442298E+02  5.110000000E-04  0.00000E+00  9.000E+00
     -11     1     3     3     0     0 -1.177805222E-01  3.433723365E-01  9.618937681E+00  9.625785120E+00  5.110000000E-04  0.00000E+00  9.000E+00
       2     1     1     2   511     0  1.288774887E+00  2.758857108E+00  2.030306360E+02  2.030534693E+02  0.000000000E+00  0.00000E+00  9.000E+00
      21     1     1     2   502   511 -3.107971650E+00 -4.568214780E+00  1.642681536E+02  1.643610488E+02  3.303624740E-06  0.00000E+00  9.000E+00
#rwgt            2         248   72601782.078616872                3    11266212           0
<weights>
0.11145E+08
0.10643E+08
0.11491E+08
0.12935E+08
0.92075E+07
0.91702E+07
0.13910E+08
0.11174E+08
0.11116E+08
0.10820E+08
0.10809E+08
0.10960E+08
0.11005E+08
0.10838E+08
0.10820E+08
0.11227E+08
0.11212E+08
0.11467E+08
0.11505E+08
0.11494E+08
0.11443E+08
0.11506E+08
0.11525E+08
0.11409E+08
0.11332E+08
0.11290E+08
0.11326E+08
0.11439E+08
0.11374E+08
0.11484E+08
0.11518E+08
0.11185E+08
0.11217E+08
0.11137E+08
0.11179E+08
0.11210E+08
0.11099E+08
0.11136E+08
0.11080E+08
0.11168E+08
0.11127E+08
0.11185E+08
0.11103E+08
0.11510E+08
0.10810E+08
</weights>
</event>
<event>
      7  10001  1.11453E+07  2.09329E+00 -1.00000E+00  3.45703E-01
      21    -1     0     0   512   501  0.000000000E+00  0.000000000E+00  1.349131734E+01  1.349131734E+01  0.000000000E+00  0.00000E+00  9.000E+00
       4    -1     0     0   501     0  0.000000000E+00  0.000000000E+00 -5.071417422E+01  5.071417422E+01  0.000000000E+00  0.00000E+00  9.000E+00
      23     2     1     2     0     0 -1.509949043E+00 -7.016316067E-01 -4.373582164E+01  4.378036510E+01  1.061150475E+00  0.00000E+00  9.000E+00
      11     1     3     3     0     0 -1.205170997E+00 -9.763312606E-01 -3.647170039E+01  3.650466531E+01  5.110000000E-04  0.00000E+00  9.000E+00
     -11     1     3     3     0     0 -3.047780456E-01  2.746996539E-01 -7.264121250E+00  7.275699784E+00  5.110000000E-04  0.00000E+00  9.000E+00
       4     1     1     2   502     0 -5.386434379E-01  1.131878926E+00 -6.817259927E+00  6.931545251E+00  0.000000000E+00  0.00000E+00  9.000E+00
      21     1     1     2   512   502  2.048592481E+00 -4.302473190E-01  1.333022469E+01  1.349358122E+01  2.384185791E-07  0.00000E+00  9.000E+00
#rwgt            1          19   485958.01623363531                3    11266748           0
<weights>
0.11145E+08
0.15420E+08
0.72998E+07
0.10290E+08
0.10765E+08
0.14601E+08
0.55734E+07
0.11370E+08
0.10924E+08
0.10520E+08
0.10720E+08
0.10788E+08
0.10989E+08
0.10649E+08
0.10701E+08
0.11239E+08
0.11204E+08
0.11548E+08
0.11645E+08
0.11635E+08
0.11525E+08
0.11570E+08
0.11709E+08
0.11238E+08
0.11668E+08
0.11560E+08
0.10970E+08
0.11523E+08
0.11296E+08
0.11443E+08
0.11601E+08
0.11053E+08
0.11380E+08
0.11212E+08
0.11089E+08
0.11482E+08
0.10850E+08
0.10437E+08
0.11792E+08
0.11101E+08
0.11187E+08
0.11152E+08
0.11140E+08
0.11682E+08
0.10628E+08
</weights>
</event>
<event>
      6  10001 -1.11453E+07  8.94427E-01 -1.00000E+00  5.81998E-01
      21    -1     0     0   502   501  0.000000000E+00  0.000000000E+00  2.924051102E-02  2.924051102E-02  0.000000000E+00  0.00000E+00  9.000E+00
       2    -1     0     0   501     0  0.000000000E+00  0.000000000E+00 -3.823781646E+01  3.823781646E+01  0.000000000E+00  0.00000E+00  9.000E+00
      23     2     1     2     0     0  2.332171957E-01 -3.738414557E-01 -1.836453336E+01  1.841812315E+01  1.333051768E+00  0.00000E+00  9.000E+00
      11     1     3     3     0     0  3.261065981E-01 -4.929386238E-01 -3.279565151E+00  3.332398811E+00  5.110000000E-04  0.00000E+00  9.000E+00
     -11     1     3     3     0     0 -9.288940236E-02  1.190971681E-01 -1.508496821E+01  1.508572434E+01  5.110000000E-04  0.00000E+00  9.000E+00
       2     1     1     2   502     0 -2.332171957E-01  3.738414557E-01 -1.984404259E+01  1.984893383E+01  0.000000000E+00  0.00000E+00  9.000E+00
#rwgt            1          17  -483639.02987606794                3    11278968           0
<weights>
-.11145E+08
-.92101E+07
-.12574E+08
-.17318E+08
-.64750E+07
-.52275E+07
-.19962E+08
-.11153E+08
-.11138E+08
-.11167E+08
-.11185E+08
-.11109E+08
-.11206E+08
-.11191E+08
-.11191E+08
-.11203E+08
-.11009E+08
-.11122E+08
-.11036E+08
-.11031E+08
-.11127E+08
-.11086E+08
-.11081E+08
-.11158E+08
-.11055E+08
-.11098E+08
-.11150E+08
-.11090E+08
-.11082E+08
-.11078E+08
-.11092E+08
-.11106E+08
-.11166E+08
-.11157E+08
-.11123E+08
-.11184E+08
-.11103E+08
-.11075E+08
-.11246E+08
-.11099E+08
-.11185E+08
-.11147E+08
-.11143E+08
-.11100E+08
-.11180E+08
</weights>
</event>
<event>
      6  10001 -1.11453E+07  8.94427E-01 -1.00000E+00  5.20126E-01
      21    -1     0     0   502   501  0.000000000E+00  0.000000000E+00  5.134569417E-03  5.134569417E-03  0.000000000E+00  0.00000E+00  9.000E+00
       2    -1     0     0   501     0  0.000000000E+00  0.000000000E+00 -1.690454418E+02  1.690454418E+02  0.000000000E+00  0.00000E+00  9.000E+00
      23     2     1     2     0     0  2.710944983E-01  1.180362710E-02 -1.636461855E+02  1.636496338E+02  1.027121134E+00  0.00000E+00  9.000E+00
      11     1     3     3     0     0  3.858342769E-01 -1.430710977E-01 -2.554893187E+01  2.555224564E+01  5.110000000E-04  0.00000E+00  9.000E+00
     -11     1     3     3     0     0 -1.147397786E-01  1.548747248E-01 -1.380972536E+02  1.380973881E+02  5.110000000E-04  0.00000E+00  9.000E+00
       2     1     1     2   502     0 -2.710944983E-01 -1.180362710E-02 -5.394121767E+00  5.400942621E+00  0.000000000E+00  0.00000E+00  9.000E+00
#rwgt            1          17  -8836985.1269355826                3    11291041           0
<weights>
-.11145E+08
-.11692E+08
-.10501E+08
-.14211E+08
-.84136E+07
-.91702E+07
-.13910E+08
-.11133E+08
-.11156E+08
-.11171E+08
-.11172E+08
-.11122E+08
-.11178E+08
-.11174E+08
-.11172E+08
-.11274E+08
-.10930E+08
-.11184E+08
-.11014E+08
-.11003E+08
-.11188E+08
-.11104E+08
-.11127E+08
-.11199E+08
-.11036E+08
-.11101E+08
-.11159E+08
-.11085E+08
-.11131E+08
-.11109E+08
-.11125E+08
-.11082E+08
-.11198E+08
-.11183E+08
-.11088E+08
-.11140E+08
-.11146E+08
-.11166E+08
-.11125E+08
-.11142E+08
-.11144E+08
-.11174E+08
-.11114E+08
-.11114E+08
-.11173E+08
</weights>
</event>
<event>
      6  10001 -1.11453E+07  8.94427E-01 -1.00000E+00  5.40616E-01
      21    -1     0     0   502   501  0.000000000E+00  0.000000000E+00  2.230754724E-02  2.230754724E-02  0.000000000E+00  0.00000E+00  9.000E+00
       4    -1     0     0   501     0  0.000000000E+00  0.000000000E+00 -1.855185407E+02  1.855185407E+02  0.000000000E+00  0.00000E+00  9.000E+00
      23     2     1     2     0     0  6.013503187E-01  5.457410757E-02 -1.701008204E+02  1.701335989E+02  3.284471371E+00  0.00000E+00  9.000E+00
      11     1     3     3     0     0  8.193315413E-01 -8.497044129E-01 -1.548165711E+02  1.548210709E+02  5.110000000E-04  0.00000E+00  9.000E+00
     -11     1     3     3     0     0 -2.179812226E-01  9.042785204E-01 -1.528424931E+01  1.531252796E+01  5.110000000E-04  0.00000E+00  9.000E+00
       4     1     1     2   502     0 -6.013503187E-01 -5.457410757E-02 -1.539541274E+01  1.540724940E+01  0.000000000E+00  0.00000E+00  9.000E+00
#rwgt            1          19  -1219863.6003718597                3    11292157           0
<weights>
-.11145E+08
-.12426E+08
-.96530E+07
-.15102E+08
-.77345E+07
-.91702E+07
-.13910E+08
-.10999E+08
-.11285E+08
-.11585E+08
-.11415E+08
-.11144E+08
-.11551E+08
-.11528E+08
-.11492E+08
-.11081E+08
-.11040E+08
-.10818E+08
-.10723E+08
-.10726E+08
-.10844E+08
-.10790E+08
-.10682E+08
-.11111E+08
-.10681E+08
-.10824E+08
-.11270E+08
-.10879E+08
-.10918E+08
-.10847E+08
-.10765E+08
-.11198E+08
-.10975E+08
-.11083E+08
-.11200E+08
-.11050E+08
-.11221E+08
-.11374E+08
-.10952E+08
-.10945E+08
-.11334E+08
-.11024E+08
-.11274E+08
-.10750E+08
-.11507E+08
</weights>
</event>
<event>
      7  10001  1.11453E+07  3.34418E+00 -1.00000E+00  2.79337E-01
      21    -1     0     0   502   511  0.000000000E+00  0.000000000E+00  1.921021450E+01  1.921021450E+01  0.000000000E+00  0.00000E+00  9.000E+00
      -3    -1     0     0     0   502  0.000000000E+00  0.000000000E+00 -3.087208870E+01  3.087208870E+01  0.000000000E+00  0.00000E+00  9.000E+00
      23     2     1     2     0     0  1.798956805E+00 -5.150545369E-01 -2.660209858E+01  2.674711210E+01  2.057870250E+00  0.00000E+00  9.000E+00
      11     1     3     3     0     0  2.003687486E+00 -9.153850223E-01 -2.442064110E+01  2.451979619E+01  5.110000000E-04  0.00000E+00  9.000E+00
     -11     1     3     3     0     0 -2.047306807E-01  4.003304855E-01 -2.181457479E+00  2.227315905E+00  5.110000000E-04  0.00000E+00  9.000E+00
      -3     1     1     2     0   501 -2.240077414E+00 -2.799906887E+00 -3.250424031E+00  4.839698522E+00  0.000000000E+00  0.00000E+00  9.000E+00
      21     1     1     2   501   511  4.411206087E-01  3.314961424E+00  1.819064841E+01  1.849549259E+01  2.384185791E-07  0.00000E+00  9.000E+00
#rwgt            1          13   371026.85015494929                3    11292911           0
<weights>
0.11145E+08
0.12247E+08
0.99754E+07
0.12393E+08
0.96594E+07
0.10876E+08
0.11292E+08
0.11208E+08
0.11081E+08
0.10847E+08
0.11001E+08
0.11224E+08
0.10790E+08
0.10933E+08
0.10948E+08
0.11893E+08
0.10123E+08
0.11319E+08
0.11321E+08
0.11375E+08
0.11232E+08
0.11289E+08
0.11455E+08
0.11229E+08
0.11100E+08
0.95709E+07
0.12253E+08
0.10546E+08
0.12188E+08
0.11206E+08
0.11408E+08
0.11207E+08
0.11144E+08
0.11220E+08
0.11084E+08
0.11289E+08
0.11017E+08
0.10893E+08
0.11344E+08
0.11142E+08
0.11140E+08
0.11247E+08
0.11037E+08
0.11375E+08
0.10925E+08
</weights>
</event>
<event>
      6  10001 -1.11453E+07  8.94427E-01 -1.00000E+00  3.97649E-01
      -4    -1     0     0     0   502  0.000000000E+00  0.000000000E+00  1.913818138E+02  1.913818138E+02  0.000000000E+00  0.00000E+00  9.000E+00
       4    -1     0     0   501     0  0.000000000E+00  0.000000000E+00 -2.327129639E-02  2.327129639E-02  0.000000000E+00  0.00000E+00  9.000E+00
      23     2     1     2     0     0 -2.180121790E-01 -3.158941627E-01  1.888436410E+02  1.888610631E+02  2.536352555E+00  0.00000E+00  9.000E+00
      11     1     3     3     0     0 -1.329996453E+00  1.823008935E-01  1.044426506E+02  1.044512775E+02  5.110000000E-04  0.00000E+00  9.000E+00
     -11     1     3     3     0     0  1.111984274E+00 -4.981950562E-01  8.440099046E+01  8.440978556E+01  5.110000000E-04  0.00000E+00  9.000E+00
      21     1     1     2   501   502  2.180121790E-01  3.158941627E-01  2.514901513E+00  2.544022023E+00  1.460009660E-07  0.00000E+00  9.000E+00
#rwgt            1           4  -239088.46126960806                3    11300519           0
<weights>
-.11145E+08
-.13128E+08
-.89820E+07
-.15961E+08
-.71971E+07
-.91669E+07
-.13909E+08
-.11170E+08
-.11121E+08
-.10811E+08
-.10795E+08
-.10956E+08
-.10997E+08
-.10826E+08
-.10806E+08
-.11229E+08
-.11220E+08
-.11481E+08
-.11522E+08
-.11510E+08
-.11456E+08
-.11523E+08
-.11540E+08
-.11429E+08
-.11334E+08
-.11295E+08
-.11353E+08
-.11455E+08
-.11386E+08
-.11503E+08
-.11535E+08
-.11190E+08
-.11217E+08
-.11136E+08
-.11182E+08
-.11207E+08
-.11103E+08
-.11155E+08
-.11061E+08
-.11172E+08
-.11123E+08
-.11188E+08
-.11101E+08
-.11524E+08
-.10798E+08
</weights>
</event>
<event>
      6  10001 -1.11453E+07  8.94427E-01 -1.00000E+00  1.41589E-01
       4    -1     0     0   501     0  0.000000000E+00  0.000000000E+00  5.843673982E+01  5.843673982E+01  0.000000000E+00  0.00000E+00  9.000E+00
      21    -1     0     0   502   501  0.000000000E+00  0.000000000E+00 -1.251897108E-02  1.251897108E-02  0.000000000E+00  0.00000E+00  9.000E+00
      23     2     1     2     0     0  4.733130599E-02  3.959790573E-01  4.468691437E+01  4.470616493E+01  1.249730725E+00  0.00000E+00  9.000E+00
      11     1     3     3     0     0  4.513182815E-01 -8.280632476E-02  7.528486003E+00  7.542456286E+00  5.110000000E-04  0.00000E+00  9.000E+00
     -11     1     3     3     0     0 -4.039869755E-01  4.787853820E-01  3.715842837E+01  3.716370864E+01  5.110000000E-04  0.00000E+00  9.000E+00
       4     1     1     2   502     0 -4.733130599E-02 -3.959790573E-01  1.373730648E+01  1.374309387E+01  0.000000000E+00  0.00000E+00  9.000E+00
#rwgt            1          28  -1526494.4616756423                3    11300851           0
<weights>
-.11145E+08
-.13014E+08
-.91079E+07
-.15827E+08
-.72980E+07
-.91647E+07
-.13909E+08
-.11170E+08
-.11122E+08
-.10822E+08
-.10812E+08
-.10962E+08
-.11005E+08
-.10840E+08
-.10822E+08
-.11226E+08
-.11212E+08
-.11463E+08
-.11506E+08
-.11494E+08
-.11440E+08
-.11503E+08
-.11522E+08
-.11415E+08
-.11328E+08
-.11287E+08
-.11363E+08
-.11436E+08
-.11373E+08
-.11481E+08
-.11515E+08
-.11184E+08
-.11217E+08
-.11138E+08
-.11178E+08
-.11208E+08
-.11102E+08
-.11134E+08
-.11082E+08
-.11167E+08
-.11127E+08
-.11185E+08
-.11103E+08
-.11507E+08
-.10813E+08
</weights>
</event>
<event>
      7  10001  1.11453E+07  4.37291E+00 -1.00000E+00  2.51845E-01
      -3    -1     0     0     0   502  0.000000000E+00  0.000000000E+00  9.533284340E+01  9.533284340E+01  0.000000000E+00  0.00000E+00  9.000E+00
      21    -1     0     0   502   501  0.000000000E+00  0.000000000E+00 -6.793452293E-02  6.793452293E-02  0.000000000E+00  0.00000E+00  9.000E+00
      23     2     1     2     0     0  4.698308534E-01  2.484924543E-01  3.403685255E+01  3.405674698E+01  1.035468045E+00  0.00000E+00  9.000E+00
      11     1     3     3     0     0  3.418323971E-01  5.283333206E-01  1.109511831E+01  1.111294903E+01  5.110000000E-04  0.00000E+00  9.000E+00
     -11     1     3     3     0     0  1.279984563E-01 -2.798408663E-01  2.294173424E+01  2.294379795E+01  5.110000000E-04  0.00000E+00  9.000E+00
      -3     1     1     2     0   511  6.739496757E-01 -6.516100769E-01  5.446723030E+01  5.447529698E+01  0.000000000E+00  0.00000E+00  9.000E+00
      21     1     1     2   511   501 -1.143780529E+00  4.031176226E-01  6.760826032E+00  6.868733970E+00  8.429369702E-08  0.00000E+00  9.000E+00
#rwgt            2          71   1140994.5226476127                3    11302849           0
<weights>
0.11145E+08
0.11297E+08
0.10708E+08
0.13730E+08
0.85802E+07
0.91702E+07
0.13910E+08
0.11174E+08
0.11117E+08
0.10820E+08
0.10808E+08
0.10960E+08
0.11004E+08
0.10837E+08
0.10819E+08
0.11227E+08
0.11212E+08
0.11468E+08
0.11507E+08
0.11495E+08
0.11444E+08
0.11507E+08
0.11526E+08
0.11411E+08
0.11332E+08
0.11290E+08
0.11331E+08
0.11440E+08
0.11375E+08
0.11485E+08
0.11520E+08
0.11185E+08
0.11217E+08
0.11137E+08
0.11179E+08
0.11210E+08
0.11100E+08
0.11138E+08
0.11078E+08
0.11168E+08
0.11126E+08
0.11186E+08
0.11103E+08
0.11511E+08
0.10809E+08
</weights>
</event>
<event>
      6  10001 -1.11453E+07  8.94427E-01 -1.00000E+00  3.81038E-01
       2    -1     0     0   501     0  0.000000000E+00  0.000000000E+00  2.288888809E+02  2.288888809E+02  0.000000000E+00  0.00000E+00  9.000E+00
      21    -1     0     0   502   501  0.000000000E+00  0.000000000E+00 -7.475440108E-03  7.475440108E-03  0.000000000E+00  0.00000E+00  9.000E+00
      23     2     1     2     0     0  8.272627448E-01  1.045130221E-01  1.941983077E+02  1.942032366E+02  1.104132382E+00  0.00000E+00  9.000E+00
      11     1     3     3     0     0  8.333913745E-01  3.919298675E-01  1.779694036E+02  1.779717864E+02  5.110000000E-04  0.00000E+00  9.000E+00
     -11     1     3     3     0     0 -6.128629678E-03 -2.874168454E-01  1.622890411E+01  1.623145018E+01  5.110000000E-04  0.00000E+00  9.000E+00
       2     1     1     2   502     0 -8.272627448E-01 -1.045130221E-01  3.468309776E+01  3.469311973E+01  0.000000000E+00  0.00000E+00  9.000E+00
#rwgt            1          24  -22863726.936438136                3    11304791           0
<weights>
-.11145E+08
-.12693E+08
-.93995E+07
-.15436E+08
-.75316E+07
-.91653E+07
-.13909E+08
-.11177E+08
-.11114E+08
-.10892E+08
-.10899E+08
-.10990E+08
-.11053E+08
-.10920E+08
-.10908E+08
-.11217E+08
-.11167E+08
-.11380E+08
-.11395E+08
-.11385E+08
-.11363E+08
-.11404E+08
-.11416E+08
-.11326E+08
-.11290E+08
-.11246E+08
-.11276E+08
-.11347E+08
-.11306E+08
-.11379E+08
-.11414E+08
-.11164E+08
-.11206E+08
-.11141E+08
-.11167E+08
-.11211E+08
-.11095E+08
-.11080E+08
-.11163E+08
-.11142E+08
-.11149E+08
-.11173E+08
-.11116E+08
-.11415E+08
-.10894E+08
</weights>
</event>
<event>
      6  10001 -1.11453E+07  8.94427E-01 -1.00000E+00  4.30106E-01
      21    -1     0     0   502   501  0.000000000E+00  0.000000000E+00  2.144031114E-03  2.144031114E-03  0.000000000E+00  0.00000E+00  9.000E+00
       2    -1     0     0   501     0  0.000000000E+00  0.000000000E+00 -1.004828212E+03  1.004828212E+03  0.000000000E+00  0.00000E+00  9.000E+00
      23     2     1     2     0     0 -1.646448362E-02  7.261992509E-01 -8.465463227E+02  8.465489440E+02  1.977486144E+00  0.00000E+00  9.000E+00
      11     1     3     3     0     0 -3.471834916E-01  1.014290382E+00 -7.959034814E+02  7.959042034E+02  5.110000000E-04  0.00000E+00  9.000E+00
     -11     1     3     3     0     0  3.307190079E-01 -2.880911313E-01 -5.064284133E+01  5.064474059E+01  5.110000000E-04  0.00000E+00  9.000E+00
       2     1     1     2   502     0  1.646448362E-02 -7.261992509E-01 -1.582797450E+02  1.582814117E+02  0.000000000E+00  0.00000E+00  9.000E+00
#rwgt            1          17  -20981069.633723930                3    11306480           0
<weights>
-.11145E+08
-.10841E+08
-.11382E+08
-.13176E+08
-.91202E+07
-.91702E+07
-.13910E+08
-.11140E+08
-.11150E+08
-.11165E+08
-.11131E+08
-.10898E+08
-.11420E+08
-.11151E+08
-.11143E+08
-.10660E+08
-.11870E+08
-.11612E+08
-.10521E+08
-.10412E+08
-.11682E+08
-.11136E+08
-.11151E+08
-.10871E+08
-.11400E+08
-.11757E+08
-.10786E+08
-.10461E+08
-.11966E+08
-.11044E+08
-.11217E+08
-.11264E+08
-.11022E+08
-.11879E+08
-.10293E+08
-.11024E+08
-.11258E+08
-.11105E+08
-.11201E+08
-.11358E+08
-.10959E+08
-.11108E+08
-.11184E+08
-.11141E+08
-.11150E+08
</weights>
</event>
<event>
      7  10001  1.11453E+07  1.88094E+00 -1.00000E+00  3.65746E-01
      21    -1     0     0   501   511  0.000000000E+00  0.000000000E+00  8.307271263E-02  8.307271263E-02  0.000000000E+00  0.00000E+00  9.000E+00
      21    -1     0     0   502   501  0.000000000E+00  0.000000000E+00 -1.213013426E+02  1.213013426E+02  0.000000000E+00  0.00000E+00  9.000E+00
      23     2     1     2     0     0  1.956466490E+00 -5.685599706E-01 -5.797628402E+01  5.802204810E+01  1.075888315E+00  0.00000E+00  9.000E+00
      11     1     3     3     0     0  2.082357138E+00 -6.127000649E-01 -5.462085306E+01  5.466396621E+01  5.110000000E-04  0.00000E+00  9.000E+00
     -11     1     3     3     0     0 -1.258906481E-01  4.414009426E-02 -3.355430956E+00  3.358081888E+00  5.110000000E-04  0.00000E+00  9.000E+00
       1     1     1     2   502     0 -1.491281433E+00 -1.253944844E+00 -2.599410525E+01  2.606702526E+01  0.000000000E+00  0.00000E+00  9.000E+00
      -1     1     1     2     0   511 -4.651850568E-01  1.822504815E+00 -3.724788059E+01  3.729534192E+01  0.000000000E+00  0.00000E+00  9.000E+00
#rwgt            1          22   144624.32152704967                3    11307247           0
<weights>
0.11145E+08
0.11774E+08
0.10413E+08
0.12361E+08
0.97280E+07
0.10539E+08
0.11809E+08
0.11258E+08
0.11035E+08
0.10897E+08
0.11024E+08
0.10962E+08
0.11145E+08
0.11001E+08
0.11020E+08
0.11216E+08
0.11058E+08
0.11264E+08
0.11223E+08
0.11213E+08
0.11262E+08
0.11246E+08
0.11272E+08
0.11122E+08
0.11328E+08
0.11268E+08
0.11059E+08
0.11207E+08
0.11156E+08
0.11170E+08
0.11256E+08
0.11067E+08
0.11260E+08
0.11186E+08
0.11101E+08
0.11325E+08
0.10983E+08
0.10694E+08
0.11640E+08
0.11061E+08
0.11222E+08
0.11137E+08
0.11155E+08
0.11312E+08
0.10970E+08
</weights>
</event>
<event>
      7  10001  1.11453E+07  1.39228E+01 -1.00000E+00  1.80191E-01
       2    -1     0     0   501     0  0.000000000E+00  0.000000000E+00  1.543047531E+01  1.543047531E+01  0.000000000E+00  0.00000E+00  9.000E+00
      21    -1     0     0   502   501  0.000000000E+00  0.000000000E+00 -6.190468332E+00  6.190468332E+00  0.000000000E+00  0.00000E+00  9.000E+00
      23     2     1     2     0     0  4.445978140E-01 -2.443264103E+00 -2.657181725E+00  3.887979763E+00  1.374250786E+00  0.00000E+00  9.000E+00
      11     1     3     3     0     0  3.278717037E-01 -7.785278982E-01 -1.850957225E+00  2.034612605E+00  5.110000000E-04  0.00000E+00  9.000E+00
     -11     1     3     3     0     0  1.167261102E-01 -1.664736205E+00 -8.062245002E-01  1.853367158E+00  5.110000000E-04  0.00000E+00  9.000E+00
       2     1     1     2   511     0  4.496454486E+00 -3.078235115E+00  6.915686941E+00  8.804564738E+00  0.000000000E+00  0.00000E+00  9.000E+00
      21     1     1     2   502   511 -4.941052300E+00  5.521499217E+00  4.981501765E+00  8.928399144E+00  1.498437535E-06  0.00000E+00  9.000E+00
#rwgt            2         248   14907.308469518763                3    11311789           0
<weights>
0.11145E+08
0.10454E+08
0.11757E+08
0.12706E+08
0.94201E+07
0.91702E+07
0.13910E+08
0.11207E+08
0.11080E+08
0.10886E+08
0.10906E+08
0.10982E+08
0.11064E+08
0.10914E+08
0.10913E+08
0.11216E+08
0.11165E+08
0.11378E+08
0.11383E+08
0.11380E+08
0.11360E+08
0.11392E+08
0.11424E+08
0.11254E+08
0.11338E+08
0.11289E+08
0.11094E+08
0.11348E+08
0.11280E+08
0.11360E+08
0.11404E+08
0.11155E+08
0.11212E+08
0.11142E+08
0.11163E+08
0.11246E+08
0.11058E+08
0.11020E+08
0.11197E+08
0.11138E+08
0.11153E+08
0.11165E+08
0.11125E+08
0.11412E+08
0.10896E+08
</weights>
</event>
<event>
      7  10001 -1.11453E+07  1.06079E+00 -1.00000E+00  5.40260E-01
      21    -1     0     0   512   501  0.000000000E+00  0.000000000E+00  4.028547617E+01  4.028547617E+01  0.000000000E+00  0.00000E+00  9.000E+00
       2    -1     0     0   501     0  0.000000000E+00  0.000000000E+00 -7.377047018E-01  7.377047018E-01  0.000000000E+00  0.00000E+00  9.000E+00
      23     2     1     2     0     0 -1.880847175E-01  1.024045471E+00  1.150771130E+00  1.974301886E+00  1.220470711E+00  0.00000E+00  9.000E+00
      11     1     3     3     0     0  1.537120022E-01  1.197894885E+00  7.607807517E-01  1.427363706E+00  5.110000000E-04  0.00000E+00  9.000E+00
     -11     1     3     3     0     0 -3.417967197E-01 -1.738494145E-01  3.899903785E-01  5.469381802E-01  5.110000000E-04  0.00000E+00  9.000E+00
       2     1     1     2   502     0 -4.914630841E-01 -2.094930410E-01 -9.468788222E-02  5.425763470E-01  0.000000000E+00  0.00000E+00  9.000E+00
      21     1     1     2   512   502  6.795478016E-01 -8.145524296E-01  3.849168822E+01  3.850630264E+01  4.768371582E-07  0.00000E+00  9.000E+00
#rwgt            1          17  -36003.246323267071                3    11312439           0
<weights>
-.11145E+08
0.20385E+08
-.34787E+08
-.54711E+08
0.16399E+08
0.40813E+08
-.90639E+08
-.14539E+08
-.72632E+07
-.11508E+08
-.12229E+08
-.10904E+08
-.12290E+08
-.11783E+08
-.12141E+08
-.11910E+08
-.92929E+07
-.10048E+08
-.10244E+08
-.10388E+08
-.10038E+08
-.98205E+07
-.10344E+08
-.91869E+07
-.11833E+08
-.10247E+08
-.10935E+08
-.94639E+07
-.11136E+08
-.95283E+07
-.10106E+08
-.11193E+08
-.10710E+08
-.11219E+08
-.10846E+08
-.14346E+08
-.76482E+07
-.92711E+07
-.12927E+08
-.10813E+08
-.11482E+08
-.10492E+08
-.11843E+08
-.10239E+08
-.11903E+08
</weights>
</event>
<event>
      6  10001 -1.11453E+07  8.94427E-01 -1.00000E+00  4.48047E-01
       2    -1     0     0   501     0  0.000000000E+00  0.000000000E+00  6.109000368E+01  6.109000368E+01  0.000000000E+00  0.00000E+00  9.000E+00
      21    -1     0     0   502   501  0.000000000E+00  0.000000000E+00 -2.110298791E-02  2.110298791E-02  0.000000000E+00  0.00000E+00  9.000E+00
      23     2     1     2     0     0 -9.695681377E-02  7.067794399E-01  4.987583893E+01  4.989533343E+01  1.198353427E+00  0.00000E+00  9.000E+00
      11     1     3     3     0     0 -2.030124586E-01  9.705403008E-01  4.519125237E+01  4.520212886E+01  5.110000000E-04  0.00000E+00  9.000E+00
     -11     1     3     3     0     0  1.060556449E-01 -2.637608609E-01  4.684586569E+00  4.693204574E+00  5.110000000E-04  0.00000E+00  9.000E+00
       2     1     1     2   502     0  9.695681377E-02 -7.067794399E-01  1.119306176E+01  1.121577324E+01  0.000000000E+00  0.00000E+00  9.000E+00
#rwgt            1          24  -13140157.242659375                3    11320968           0
<weights>
-.11145E+08
-.12443E+08
-.96953E+07
-.15128E+08
-.77685E+07
-.91673E+07
-.13909E+08
-.11178E+08
-.11113E+08
-.10834E+08
-.10830E+08
-.10966E+08
-.11015E+08
-.10854E+08
-.10839E+08
-.11224E+08
-.11202E+08
-.11447E+08
-.11484E+08
-.11473E+08
-.11424E+08
-.11482E+08
-.11504E+08
-.11386E+08
-.11328E+08
-.11282E+08
-.11311E+08
-.11418E+08
-.11358E+08
-.11458E+08
-.11495E+08
-.11178E+08
-.11216E+08
-.11139E+08
-.11174E+08
-.11213E+08
-.11096E+08
-.11111E+08
-.11104E+08
-.11161E+08
-.11132E+08
-.11182E+08
-.11106E+08
-.11489E+08
-.10828E+08
</weights>
</event>
<event>
      7  10001  1.11453E+07  2.03399E+00 -1.00000E+00  3.50872E-01
      -4    -1     0     0     0   502  0.000000000E+00  0.000000000E+00  1.553559383E-01  1.553559383E-01  0.000000000E+00  0.00000E+00  9.000E+00
      21    -1     0     0   502   511  0.000000000E+00  0.000000000E+00 -1.867087730E+02  1.867087730E+02  0.000000000E+00  0.00000E+00  9.000E+00
      23     2     1     2     0     0 -2.605878226E-01  7.021369594E-01 -3.420010305E+00  3.650178336E+00  1.032680528E+00  0.00000E+00  9.000E+00
      11     1     3     3     0     0 -4.406813195E-01  3.172507552E-01 -6.463971550E-01  8.442023514E-01  5.110000000E-04  0.00000E+00  9.000E+00
     -11     1     3     3     0     0  1.800934970E-01  3.848862043E-01 -2.773613150E+00  2.805975984E+00  5.110000000E-04  0.00000E+00  9.000E+00
      -4     1     1     2     0   501  2.053968770E+00  2.575055844E-01 -3.201368046E+01  3.208053668E+01  0.000000000E+00  0.00000E+00  9.000E+00
      21     1     1     2   501   511 -1.793380947E+00 -9.596425438E-01 -1.511197263E+02  1.511334139E+02  1.907348633E-06  0.00000E+00  9.000E+00
#rwgt            1           3   1196910.8993716612                3    11321471           0
<weights>
0.11145E+08
0.12547E+08
0.95796E+07
0.12772E+08
0.92684E+07
0.10837E+08
0.11351E+08
0.11275E+08
0.11014E+08
0.10726E+08
0.10814E+08
0.10906E+08
0.11015E+08
0.10783E+08
0.10808E+08
0.11231E+08
0.11191E+08
0.11468E+08
0.11524E+08
0.11519E+08
0.11444E+08
0.11483E+08
0.11582E+08
0.11240E+08
0.11513E+08
0.11429E+08
0.11009E+08
0.11436E+08
0.11301E+08
0.11415E+08
0.11507E+08
0.11120E+08
0.11280E+08
0.11165E+08
0.11140E+08
0.11342E+08
0.10972E+08
0.10796E+08
0.11383E+08
0.11135E+08
0.11155E+08
0.11168E+08
0.11122E+08
0.11541E+08
0.10772E+08
</weights>
</event>
<event>
      6  10001  1.11453E+07  8.94427E-01 -1.00000E+00  5.96924E-01
      21    -1     0     0   502   501  0.000000000E+00  0.000000000E+00  4.740207345E+01  4.740207345E+01  0.000000000E+00  0.00000E+00  9.000E+00
      -4    -1     0     0     0   502  0.000000000E+00  0.000000000E+00 -6.441155887E-02  6.441155887E-02  0.000000000E+00  0.00000E+00  9.000E+00
      23     2     1     2     0     0  3.321335343E-01 -1.800349449E-01  1.718138047E+01  1.730783725E+01  2.053940184E+00  0.00000E+00  9.000E+00
      11     1     3     3     0     0  9.547993236E-01 -7.453811499E-01  1.166359830E+01  1.172632766E+01  5.110000000E-04  0.00000E+00  9.000E+00
     -11     1     3     3     0     0 -6.226657893E-01  5.653462051E-01  5.517782169E+00  5.581509593E+00  5.110000000E-04  0.00000E+00  9.000E+00
      -4     1     1     2     0   501 -3.321335343E-01  1.800349449E-01  3.015628142E+01  3.015864776E+01  0.000000000E+00  0.00000E+00  9.000E+00
#rwgt            1          12   724401.52177782706                3    11341520           0
<weights>
0.11173E+08
0.13089E+08
0.92110E+07
0.12818E+08
0.93420E+07
0.11257E+08
0.10776E+08
0.11181E+08
0.11165E+08
0.10775E+08
0.10727E+08
0.10957E+08
0.10974E+08
0.10778E+08
0.10743E+08
0.11268E+08
0.11295E+08
0.11602E+08
0.11654E+08
0.11639E+08
0.11570E+08
0.11663E+08
0.11665E+08
0.11568E+08
0.11378E+08
0.11356E+08
0.11476E+08
0.11583E+08
0.11492E+08
0.11653E+08
0.11675E+08
0.11249E+08
0.11247E+08
0.11154E+08
0.11229E+08
0.11219E+08
0.11150E+08
0.11298E+08
0.10970E+08
0.11229E+08
0.11124E+08
0.11229E+08
0.11114E+08
0.11647E+08
0.10741E+08
</weights>
</event>
<event>
      7  10001  1.11453E+07  8.94427E-01 -1.00000E+00  6.07649E-01
      -2    -1     0     0     0   501  0.000000000E+00  0.000000000E+00  1.485214687E+00  1.485214687E+00  0.000000000E+00  0.00000E+00  9.000E+00
       3    -1     0     0   501     0  0.000000000E+00  0.000000000E+00 -4.979012506E+00  4.979012506E+00  0.000000000E+00  0.00000E+00  9.000E+00
      23     2     1     2     0     0 -6.942907628E-01  1.122060569E+00  5.931039495E-01  2.032742467E+00  1.428009124E+00  0.00000E+00  9.000E+00
      11     1     3     3     0     0 -9.074160613E-01  1.291311865E-01  1.680698717E-01  9.318403911E-01  5.110000000E-04  0.00000E+00  9.000E+00
     -11     1     3     3     0     0  2.131252985E-01  9.929293828E-01  4.250340778E-01  1.100902076E+00  5.110000000E-04  0.00000E+00  9.000E+00
       3     1     1     2   502     0  3.761974792E-01 -1.125863087E+00 -3.866142159E+00  4.044273412E+00  0.000000000E+00  0.00000E+00  9.000E+00
      -2     1     1     2     0   502  3.180932836E-01  3.802518095E-03 -2.207596101E-01  3.872113140E-01  0.000000000E+00  0.00000E+00  9.000E+00
#rwgt            2         115   7026.0006381949297                3    11354168           0
<weights>
0.11145E+08
0.11483E+08
0.10606E+08
0.13956E+08
0.84980E+07
0.91702E+07
0.13910E+08
0.11201E+08
0.11085E+08
0.10839E+08
0.10875E+08
0.11048E+08
0.10944E+08
0.10871E+08
0.10870E+08
0.11344E+08
0.10953E+08
0.11278E+08
0.11671E+08
0.11646E+08
0.11259E+08
0.11423E+08
0.11511E+08
0.11711E+08
0.11018E+08
0.10527E+08
0.12591E+08
0.11129E+08
0.11686E+08
0.11387E+08
0.11482E+08
0.11202E+08
0.11181E+08
0.11157E+08
0.11154E+08
0.11257E+08
0.11048E+08
0.11062E+08
0.11134E+08
0.11162E+08
0.11129E+08
0.11198E+08
0.11090E+08
0.11460E+08
0.10854E+08
</weights>
</event>
<event>
      6  10001 -1.11453E+07  8.94427E-01 -1.00000E+00  1.63591E-01
       2    -1     0     0   501     0  0.000000000E+00  0.000000000E+00  5.276953597E-03  5.276953597E-03  0.000000000E+00  0.00000E+00  9.000E+00
      21    -1     0     0   502   501  0.000000000E+00  0.000000000E+00 -1.253017733E+02  1.253017733E+02  0.000000000E+00  0.00000E+00  9.000E+00
      23     2     1     2     0     0  1.965106353E-01  2.477475264E-01 -7.149904666E+01  7.150867121E+01  1.129773983E+00  0.00000E+00  9.000E+00
      11     1     3     3     0     0  4.433053282E-01  5.978463878E-01 -4.645464930E+01  4.646061107E+01  5.110000000E-04  0.00000E+00  9.000E+00
     -11     1     3     3     0     0 -2.467946928E-01 -3.500988614E-01 -2.504439737E+01  2.504806014E+01  5.110000000E-04  0.00000E+00  9.000E+00
       2     1     1     2   502     0 -1.965106353E-01 -2.477475264E-01 -5.379744969E+01  5.379837905E+01  0.000000000E+00  0.00000E+00  9.000E+00
#rwgt            1          24  -173940.30527504833                3    11355388           0
<weights>
-.11145E+08
-.11510E+08
-.10565E+08
-.13989E+08
-.84651E+07
-.91702E+07
-.13910E+08
-.11132E+08
-.11157E+08
-.11248E+08
-.11249E+08
-.11101E+08
-.11308E+08
-.11286E+08
-.11273E+08
-.11134E+08
-.11055E+08
-.11023E+08
-.10948E+08
-.10944E+08
-.11038E+08
-.11004E+08
-.10942E+08
-.11095E+08
-.11002E+08
-.11058E+08
-.11156E+08
-.11029E+08
-.11025E+08
-.10994E+08
-.10992E+08
-.11117E+08
-.11128E+08
-.11137E+08
-.11145E+08
-.11177E+08
-.11111E+08
-.11041E+08
-.11311E+08
-.11040E+08
-.11243E+08
-.11093E+08
-.11201E+08
-.11011E+08
-.11256E+08
</weights>
</event>
<event>
      7  10001  1.11453E+07  1.10337E+00 -1.00000E+00  5.25926E-01
       1    -1     0     0   501     0  0.000000000E+00  0.000000000E+00  1.295508400E+00  1.295508400E+00  0.000000000E+00  0.00000E+00  9.000E+00
      21    -1     0     0   502   501  0.000000000E+00  0.000000000E+00 -1.062910744E+00  1.062910744E+00  0.000000000E+00  0.00000E+00  9.000E+00
      23     2     1     2     0     0  5.183989925E-01 -2.323881351E-02  6.985044458E-01  1.427301423E+00  1.131372324E+00  0.00000E+00  9.000E+00
      11     1     3     3     0     0  3.712974059E-01  5.192673839E-01  1.816550682E-01  6.637011410E-01  5.110000000E-04  0.00000E+00  9.000E+00
     -11     1     3     3     0     0  1.471015866E-01 -5.425061974E-01  5.168493776E-01  7.636002824E-01  5.110000000E-04  0.00000E+00  9.000E+00
       1     1     1     2   511     0 -1.987482295E-01  4.303806231E-02  1.392346761E-01  2.464537047E-01  0.000000000E+00  0.00000E+00  9.000E+00
      21     1     1     2   502   511 -3.196507630E-01 -1.979924880E-02 -6.051414656E-01  6.846640153E-01  5.372690075E-08  0.00000E+00  9.000E+00
#rwgt            2         218   2635867.7388554071                3    11357976           0
<weights>
0.11145E+08
0.11772E+08
0.10236E+08
0.14307E+08
0.82015E+07
0.91702E+07
0.13910E+08
0.11197E+08
0.11091E+08
0.10851E+08
0.10856E+08
0.10970E+08
0.11034E+08
0.10875E+08
0.10865E+08
0.11225E+08
0.11186E+08
0.11426E+08
0.11440E+08
0.11435E+08
0.11404E+08
0.11452E+08
0.11476E+08
0.11321E+08
0.11338E+08
0.11289E+08
0.11167E+08
0.11395E+08
0.11329E+08
0.11425E+08
0.11464E+08
0.11171E+08
0.11214E+08
0.11139E+08
0.11171E+08
0.11231E+08
0.11075E+08
0.11080E+08
0.11137E+08
0.11153E+08
0.11139E+08
0.11175E+08
0.11114E+08
0.11463E+08
0.10851E+08
</weights>
</event>
<event>
      6  10001 -1.11453E+07  8.94427E-01 -1.00000E+00  6.63407E-01
       2    -1     0     0   501     0  0.000000000E+00  0.000000000E+00  2.063103478E+02  2.063103478E+02  0.000000000E+00  0.00000E+00  9.000E+00
      21    -1     0     0   502   501  0.000000000E+00  0.000000000E+00 -7.053707084E-03  7.053707084E-03  0.000000000E+00  0.00000E+00  9.000E+00
      23     2     1     2     0     0  1.382063904E-03 -3.181807930E-01  1.992843251E+02  1.992912243E+02  1.627451122E+00  0.00000E+00  9.000E+00
      11     1     3     3     0     0 -4.125379934E-01 -4.747214603E-01  1.824489409E+02  1.824500249E+02  5.110000000E-04  0.00000E+00  9.000E+00
     -11     1     3     3     0     0  4.139200573E-01  1.565406673E-01  1.683538421E+01  1.684119938E+01  5.110000000E-04  0.00000E+00  9.000E+00
       2     1     1     2   502     0 -1.382063904E-03  3.181807930E-01  7.018968949E+00  7.026177199E+00  0.000000000E+00  0.00000E+00  9.000E+00
#rwgt            1          24  -8942258.0434449613                3    11359652           0
<weights>
-.11145E+08
-.21877E+08
0.31049E+07
-.26608E+08
0.24876E+07
-.91619E+07
-.13909E+08
-.11163E+08
-.11130E+08
-.10812E+08
-.10794E+08
-.10959E+08
-.10994E+08
-.10826E+08
-.10806E+08
-.11227E+08
-.11225E+08
-.11479E+08
-.11529E+08
-.11515E+08
-.11455E+08
-.11524E+08
-.11540E+08
-.11445E+08
-.11327E+08
-.11291E+08
-.11410E+08
-.11456E+08
-.11389E+08
-.11505E+08
-.11536E+08
-.11191E+08
-.11216E+08
-.11137E+08
-.11181E+08
-.11201E+08
-.11110E+08
-.11159E+08
-.11057E+08
-.11173E+08
-.11121E+08
-.11188E+08
-.11100E+08
-.11525E+08
-.10797E+08
</weights>
</event>
<event>
      7  10001  1.11453E+07  2.05046E+00 -1.00000E+00  3.49404E-01
       2    -1     0     0   501     0  0.000000000E+00  0.000000000E+00  3.071511695E+01  3.071511695E+01  0.000000000E+00  0.00000E+00  9.000E+00
      21    -1     0     0   511   501  0.000000000E+00  0.000000000E+00 -6.763764403E+00  6.763764403E+00  0.000000000E+00  0.00000E+00  9.000E+00
      23     2     1     2     0     0 -1.794787328E+00  1.570019370E+00  1.382609516E+01  1.408852362E+01  1.280378078E+00  0.00000E+00  9.000E+00
      11     1     3     3     0     0 -1.550444480E+00  1.445781800E+00  1.348650919E+01  1.365210949E+01  5.110000000E-04  0.00000E+00  9.000E+00
     -11     1     3     3     0     0 -2.443428481E-01  1.242375693E-01  3.395859694E-01  4.364141299E-01  5.110000000E-04  0.00000E+00  9.000E+00
       2     1     1     2   502     0  1.432713670E+00  4.482210430E-01  1.656457435E+01  1.663245905E+01  0.000000000E+00  0.00000E+00  9.000E+00
      21     1     1     2   511   502  3.620736577E-01 -2.018240413E+00 -6.439316963E+00  6.757898686E+00  1.685873940E-07  0.00000E+00  9.000E+00
#rwgt            1          24   275992.22879978246                3    11361985           0
<weights>
0.11145E+08
0.13744E+08
0.89226E+07
0.77322E+07
0.12716E+08
0.15104E+08
0.48015E+07
0.11145E+08
0.11151E+08
0.10456E+08
0.10375E+08
0.10815E+08
0.10756E+08
0.10446E+08
0.10391E+08
0.11283E+08
0.11410E+08
0.11887E+08
0.12033E+08
0.12006E+08
0.11832E+08
0.12007E+08
0.12026E+08
0.11870E+08
0.11499E+08
0.11458E+08
0.11781E+08
0.11874E+08
0.11719E+08
0.11995E+08
0.12028E+08
0.11280E+08
0.11277E+08
0.11129E+08
0.11228E+08
0.11191E+08
0.11143E+08
0.11406E+08
0.10758E+08
0.11285E+08
0.11023E+08
0.11251E+08
0.11035E+08
0.11975E+08
0.10395E+08
</weights>
</event>
<event>
      7  10001  1.11453E+07  5.58204E+00 -1.00000E+00  2.29206E-01
      21    -1     0     0   502   501  0.000000000E+00  0.000000000E+00  2.994097816E+00  2.994097816E+00  0.000000000E+00  0.00000E+00  9.000E+00
       4    -1     0     0   501     0  0.000000000E+00  0.000000000E+00 -5.112911809E+00  5.112911809E+00  0.000000000E+00  0.00000E+00  9.000E+00
      23     2     1     2     0     0 -9.143789174E-02  4.329851879E-01 -1.887389370E+00  2.509666946E+00  1.593848326E+00  0.00000E+00  9.000E+00
      11     1     3     3     0     0 -7.099043251E-01  6.431160875E-01 -1.392585296E+00  1.690223808E+00  5.110000000E-04  0.00000E+00  9.000E+00
     -11     1     3     3     0     0  6.184664334E-01 -2.101308996E-01 -4.948040741E-01  8.194431384E-01  5.110000000E-04  0.00000E+00  9.000E+00
       4     1     1     2   511     0 -7.206517424E-01  2.309411577E+00  8.134673641E-01  2.552342045E+00  0.000000000E+00  0.00000E+00  9.000E+00
      21     1     1     2   502   511  8.120896341E-01 -2.742396764E+00 -1.044891987E+00  3.045000633E+00  1.576990671E-07  0.00000E+00  9.000E+00
#rwgt            1          19   1898797.3105966907                3    11400713           0
<weights>
0.11145E+08
0.12889E+08
0.92974E+07
0.13101E+08
0.90507E+07
0.10873E+08
0.11296E+08
0.11221E+08
0.11065E+08
0.10757E+08
0.10750E+08
0.10914E+08
0.11000E+08
0.10774E+08
0.10761E+08
0.11234E+08
0.11250E+08
0.11539E+08
0.11550E+08
0.11549E+08
0.11508E+08
0.11570E+08
0.11605E+08
0.11350E+08
0.11444E+08
0.11432E+08
0.11039E+08
0.11530E+08
0.11367E+08
0.11541E+08
0.11584E+08
0.11190E+08
0.11230E+08
0.11128E+08
0.11190E+08
0.11282E+08
0.11028E+08
0.11096E+08
0.11065E+08
0.11177E+08
0.11120E+08
0.11172E+08
0.11118E+08
0.11578E+08
0.10748E+08
</weights>
</event>
<event>
      7  10001  1.11453E+07  8.94427E-01 -1.00000E+00  6.07649E-01
      -2    -1     0     0     0   501  0.000000000E+00  0.000000000E+00  8.469730000E+01  8.469730000E+01  0.000000000E+00  0.00000E+00  9.000E+00
       4    -1     0     0   501     0  0.000000000E+00  0.000000000E+00 -1.852678410E-01  1.852678410E-01  0.000000000E+00  0.00000E+00  9.000E+00
      23     2     1     2     0     0 -6.058986128E-01  1.087327151E-01  8.197757091E+01  8.199898387E+01  1.769827173E+00  0.00000E+00  9.000E+00
      11     1     3     3     0     0 -8.567634787E-01  6.103054443E-01  7.038100220E+01  7.038886267E+01  5.110000000E-04  0.00000E+00  9.000E+00
     -11     1     3     3     0     0  2.508648659E-01 -5.015727292E-01  1.159656870E+01  1.161012120E+01  5.110000000E-04  0.00000E+00  9.000E+00
       4     1     1     2   502     0  9.233373750E-01  1.849648189E-01  1.680194166E+00  1.926088349E+00  0.000000000E+00  0.00000E+00  9.000E+00
      -2     1     1     2     0   502 -3.174387622E-01 -2.936975339E-01  8.542670860E-01  9.574956206E-01  0.000000000E+00  0.00000E+00  9.000E+00
#rwgt            2         117   8981.5022598885989                3    11414885           0
<weights>
0.11145E+08
0.11153E+08
0.10941E+08
0.13555E+08
0.87662E+07
0.91702E+07
0.13910E+08
0.11184E+08
0.11104E+08
0.10805E+08
0.10788E+08
0.10951E+08
0.10998E+08
0.10820E+08
0.10800E+08
0.11232E+08
0.11220E+08
0.11492E+08
0.11517E+08
0.11509E+08
0.11466E+08
0.11532E+08
0.11547E+08
0.11404E+08
0.11351E+08
0.11312E+08
0.11248E+08
0.11466E+08
0.11385E+08
0.11511E+08
0.11544E+08
0.11193E+08
0.11217E+08
0.11134E+08
0.11184E+08
0.11220E+08
0.11090E+08
0.11158E+08
0.11056E+08
0.11174E+08
0.11121E+08
0.11186E+08
0.11103E+08
0.11532E+08
0.10791E+08
</weights>
</event>
<event>
      7  10001  1.11453E+07  3.08426E+00 -1.00000E+00  2.88848E-01
      21    -1     0     0   511   501  0.000000000E+00  0.000000000E+00  6.901467415E+01  6.901467415E+01  0.000000000E+00  0.00000E+00  9.000E+00
       2    -1     0     0   501     0  0.000000000E+00  0.000000000E+00 -2.104584569E+02  2.104584569E+02  0.000000000E+00  0.00000E+00  9.000E+00
      23     2     1     2     0     0  2.271517430E+00 -3.802190021E+00 -1.634739844E+02  1.636585156E+02  6.383549556E+00  0.00000E+00  9.000E+00
      11     1     3     3     0     0 -1.319975507E+00  6.525288302E-01 -1.447625923E+01  1.455095223E+01  5.110000000E-04  0.00000E+00  9.000E+00
     -11     1     3     3     0     0  3.591492937E+00 -4.454718851E+00 -1.489977252E+02  1.491075634E+02  5.110000000E-04  0.00000E+00  9.000E+00
       2     1     1     2   502     0 -5.006576860E+00  2.376667202E+00 -4.669374900E+01  4.702149035E+01  0.000000000E+00  0.00000E+00  9.000E+00
      21     1     1     2   511   502  2.735059429E+00  1.425522819E+00  6.872395067E+01  6.879312510E+01  0.000000000E+00  0.00000E+00  9.000E+00
#rwgt            1          17   4254824.1231844472                3    11416219           0
<weights>
0.11145E+08
0.12478E+08
0.96157E+07
0.12305E+08
0.97691E+07
0.11195E+08
0.10801E+08
0.11134E+08
0.11155E+08
0.11161E+08
0.11166E+08
0.11122E+08
0.11169E+08
0.11165E+08
0.11164E+08
0.11309E+08
0.10886E+08
0.11192E+08
0.11021E+08
0.11011E+08
0.11195E+08
0.11111E+08
0.11140E+08
0.11209E+08
0.11035E+08
0.11093E+08
0.11165E+08
0.11096E+08
0.11127E+08
0.11116E+08
0.11134E+08
0.11069E+08
0.11213E+08
0.11173E+08
0.11097E+08
0.11149E+08
0.11137E+08
0.11164E+08
0.11125E+08
0.11144E+08
0.11142E+08
0.11177E+08
0.11111E+08
0.11123E+08
0.11165E+08
</weights>
</event>
<event>
      7  10001  1.11453E+07  8.94427E-01 -1.00000E+00  6.07649E-01
      -1    -1     0     0     0   502  0.000000000E+00  0.000000000E+00  4.639173397E+01  4.639173397E+01  0.000000000E+00  0.00000E+00  9.000E+00
       1    -1     0     0   502     0  0.000000000E+00  0.000000000E+00 -2.717630073E-01  2.717630073E-01  0.000000000E+00  0.00000E+00  9.000E+00
      23     2     1     2     0     0 -1.916527234E-01 -5.785638352E-01  3.920508916E+00  4.312708640E+00  1.690443366E+00  0.00000E+00  9.000E+00
      11     1     3     3     0     0 -7.331941718E-01 -4.910314269E-04  7.663036994E-01  1.060563791E+00  5.110000000E-04  0.00000E+00  9.000E+00
     -11     1     3     3     0     0  5.415414484E-01 -5.780728038E-01  3.154205217E+00  3.252144849E+00  5.110000000E-04  0.00000E+00  9.000E+00
      -1     1     1     2     0   501  8.188244427E-01  8.335193867E-01  4.056283708E+01  4.057966215E+01  0.000000000E+00  0.00000E+00  9.000E+00
       1     1     1     2   501     0 -6.271717193E-01 -2.549555515E-01  1.636624969E+00  1.771126192E+00  0.000000000E+00  0.00000E+00  9.000E+00
#rwgt            2         137   26003.521883151112                3    11428512           0
<weights>
0.11145E+08
0.11160E+08
0.10967E+08
0.13564E+08
0.87872E+07
0.91702E+07
0.13910E+08
0.11063E+08
0.11250E+08
0.10830E+08
0.10807E+08
0.10964E+08
0.11000E+08
0.10844E+08
0.10820E+08
0.11231E+08
0.11217E+08
0.11501E+08
0.11453E+08
0.11437E+08
0.11482E+08
0.11506E+08
0.11519E+08
0.11400E+08
0.11322E+08
0.11336E+08
0.11196E+08
0.11440E+08
0.11365E+08
0.11487E+08
0.11514E+08
0.11172E+08
0.11230E+08
0.11168E+08
0.11150E+08
0.11119E+08
0.11200E+08
0.11149E+08
0.11070E+08
0.11162E+08
0.11130E+08
0.11200E+08
0.11088E+08
0.11505E+08
0.10815E+08
</weights>
</event>
<event>
      7  10001  1.11453E+07  2.70031E+00 -1.00000E+00  3.06053E-01
      21    -1     0     0   502   511  0.000000000E+00  0.000000000E+00  2.396490295E+02  2.396490295E+02  0.000000000E+00  0.00000E+00  9.000E+00
      -2    -1     0     0     0   502  0.000000000E+00  0.000000000E+00 -1.868300409E+00  1.868300409E+00  0.000000000E+00  0.00000E+00  9.000E+00
      23     2     1     2     0     0 -9.804382835E-01  2.577612319E-01  1.547552933E+00  2.419411423E+00  1.559144469E+00  0.00000E+00  9.000E+00
      11     1     3     3     0     0 -8.573354123E-01 -1.394428548E-01  5.536615957E-02  8.703642867E-01  5.110000000E-04  0.00000E+00  9.000E+00
     -11     1     3     3     0     0 -1.231028713E-01  3.972040867E-01  1.492186773E+00  1.549047136E+00  5.110000000E-04  0.00000E+00  9.000E+00
      -2     1     1     2     0   501 -1.397850202E+00 -1.536603106E+00 -6.674635398E-01  2.181889518E+00  0.000000000E+00  0.00000E+00  9.000E+00
      21     1     1     2   501   511  2.378288485E+00  1.278841874E+00  2.369006397E+02  2.369160289E+02  2.697398305E-06  0.00000E+00  9.000E+00
#rwgt            1          14   277608.31158777315                3    11428535           0
<weights>
0.11145E+08
0.14023E+08
0.84750E+07
0.11706E+08
0.99477E+07
0.12621E+08
0.86122E+07
0.10900E+08
0.11410E+08
0.10799E+08
0.10734E+08
0.10978E+08
0.10914E+08
0.10797E+08
0.10752E+08
0.11143E+08
0.11384E+08
0.11569E+08
0.11510E+08
0.11489E+08
0.11549E+08
0.11594E+08
0.11574E+08
0.11506E+08
0.11284E+08
0.11443E+08
0.11076E+08
0.11577E+08
0.11314E+08
0.11593E+08
0.11579E+08
0.11147E+08
0.11280E+08
0.11153E+08
0.11177E+08
0.10872E+08
0.11460E+08
0.11237E+08
0.10970E+08
0.11186E+08
0.11105E+08
0.11254E+08
0.11030E+08
0.11568E+08
0.10762E+08
</weights>
</event>
<event>
      6  10001 -1.11453E+07  8.94427E-01 -1.00000E+00  2.44445E-01
      -2    -1     0     0     0   502  0.000000000E+00  0.000000000E+00  2.405072204E-02  2.405072204E-02  0.000000000E+00  0.00000E+00  9.000E+00
       2    -1     0     0   501     0  0.000000000E+00  0.000000000E+00 -6.403444391E+02  6.403444391E+02  0.000000000E+00  0.00000E+00  9.000E+00
      23     2     1     2     0     0 -6.548189111E-01  1.318919934E-01 -6.341579355E+02  6.341699409E+02  3.844554031E+00  0.00000E+00  9.000E+00
      11     1     3     3     0     0 -5.159711870E-01 -1.834664276E+00 -3.475117928E+02  3.475170188E+02  5.110000000E-04  0.00000E+00  9.000E+00
     -11     1     3     3     0     0 -1.388477241E-01  1.966556269E+00 -2.866461428E+02  2.866529222E+02  5.110000000E-04  0.00000E+00  9.000E+00
      21     1     1     2   501   502  6.548189111E-01 -1.318919934E-01 -6.162452803E+00  6.198548850E+00  4.768371582E-07  0.00000E+00  9.000E+00
#rwgt            1           8  -26793674.808413338                3    11434834           0
<weights>
-.11145E+08
-.11744E+08
-.10388E+08
-.14273E+08
-.83234E+07
-.91702E+07
-.13910E+08
-.11133E+08
-.11157E+08
-.11163E+08
-.11144E+08
-.10944E+08
-.11370E+08
-.11154E+08
-.11148E+08
-.11142E+08
-.11139E+08
-.11546E+08
-.10596E+08
-.10513E+08
-.11597E+08
-.11114E+08
-.11172E+08
-.10978E+08
-.11280E+08
-.11472E+08
-.10946E+08
-.10633E+08
-.11734E+08
-.11055E+08
-.11204E+08
-.11068E+08
-.11220E+08
-.11650E+08
-.10540E+08
-.11072E+08
-.11213E+08
-.11131E+08
-.11169E+08
-.11294E+08
-.11014E+08
-.11124E+08
-.11167E+08
-.11136E+08
-.11154E+08
</weights>
</event>
<event>
      7  10001  1.11453E+07  2.33273E+00 -1.00000E+00  3.27620E-01
      21    -1     0     0   502   501  0.000000000E+00  0.000000000E+00  1.095892581E+02  1.095892581E+02  0.000000000E+00  0.00000E+00  9.000E+00
       4    -1     0     0   501     0  0.000000000E+00  0.000000000E+00 -3.637048041E-02  3.637048041E-02  0.000000000E+00  0.00000E+00  9.000E+00
      23     2     1     2     0     0  2.950665201E-01 -2.105721359E-01  1.862665302E+01  1.868531865E+01  1.434407714E+00  0.00000E+00  9.000E+00
      11     1     3     3     0     0  2.357210164E-01  5.751959851E-01  1.113467432E+01  1.115201270E+01  5.110000000E-04  0.00000E+00  9.000E+00
     -11     1     3     3     0     0  5.934550377E-02 -7.857681211E-01  7.491978693E+00  7.533305943E+00  5.110000000E-04  0.00000E+00  9.000E+00
       4     1     1     2   511     0 -3.027375431E-01 -5.473389646E-01  1.944569862E+01  1.945575557E+01  0.000000000E+00  0.00000E+00  9.000E+00
      21     1     1     2   502   511  7.671023001E-03  7.579111005E-01  7.148053599E+01  7.148455438E+01  9.536743164E-07  0.00000E+00  9.000E+00
#rwgt            1          19   1322067.6763191023                3    11435630           0
<weights>
0.11145E+08
0.12183E+08
0.99680E+07
0.12952E+08
0.92264E+07
0.10439E+08
0.11963E+08
0.11152E+08
0.11141E+08
0.10773E+08
0.10736E+08
0.10942E+08
0.10964E+08
0.10780E+08
0.10750E+08
0.11234E+08
0.11251E+08
0.11537E+08
0.11594E+08
0.11577E+08
0.11508E+08
0.11593E+08
0.11600E+08
0.11515E+08
0.11337E+08
0.11309E+08
0.11472E+08
0.11516E+08
0.11438E+08
0.11579E+08
0.11605E+08
0.11209E+08
0.11219E+08
0.11131E+08
0.11194E+08
0.11191E+08
0.11123E+08
0.11230E+08
0.10985E+08
0.11191E+08
0.11106E+08
0.11197E+08
0.11091E+08
0.11583E+08
0.10746E+08
</weights>
</event>
<event>
      6  10001 -1.11453E+07  8.94427E-01 -1.00000E+00  5.41213E-01
      -4    -1     0     0     0   502  0.000000000E+00  0.000000000E+00  2.916979147E+00  2.916979147E+00  0.000000000E+00  0.00000E+00  9.000E+00
       4    -1     0     0   501     0  0.000000000E+00  0.000000000E+00 -4.404923314E-01  4.404923314E-01  0.000000000E+00  0.00000E+00  9.000E+00
      23     2     1     2     0     0  1.501978778E-01  4.243967056E-01  2.452289130E+00  2.906630604E+00  1.494023937E+00  0.00000E+00  9.000E+00
      11     1     3     3     0     0  7.471791582E-01  5.715989210E-01  1.370391460E+00  1.662219912E+00  5.110000000E-04  0.00000E+00  9.000E+00
     -11     1     3     3     0     0 -5.969812804E-01 -1.472022154E-01  1.081897670E+00  1.244410692E+00  5.110000000E-04  0.00000E+00  9.000E+00
      21     1     1     2   501   502 -1.501978778E-01 -4.243967056E-01  2.419768608E-02  4.508408746E-01  9.463355612E-09  0.00000E+00  9.000E+00
#rwgt            1           4  -318519.32136563183                3    11443805           0
<weights>
-.11145E+08
-.11199E+08
-.10381E+08
-.18744E+08
-.56543E+07
-.60431E+07
-.18710E+08
-.11202E+08
-.11087E+08
-.10915E+08
-.10949E+08
-.11000E+08
-.11079E+08
-.10949E+08
-.10953E+08
-.11211E+08
-.11141E+08
-.11330E+08
-.11347E+08
-.11342E+08
-.11316E+08
-.11342E+08
-.11380E+08
-.11238E+08
-.11306E+08
-.11241E+08
-.11150E+08
-.11292E+08
-.11259E+08
-.11306E+08
-.11355E+08
-.11140E+08
-.11212E+08
-.11149E+08
-.11151E+08
-.11233E+08
-.11070E+08
-.10975E+08
-.11247E+08
-.11125E+08
-.11164E+08
-.11165E+08
-.11125E+08
-.11369E+08
-.10934E+08
</weights>
</event>
<event>
      7  10001  1.11453E+07  1.25237E+00 -1.00000E+00  4.82600E-01
       4    -1     0     0   501     0  0.000000000E+00  0.000000000E+00  7.472144276E-01  7.472144276E-01  0.000000000E+00  0.00000E+00  9.000E+00
      21    -1     0     0   502   501  0.000000000E+00  0.000000000E+00 -4.831181310E+00  4.831181310E+00  0.000000000E+00  0.00000E+00  9.000E+00
      23     2     1     2     0     0 -1.544095496E-01  5.284964244E-01 -1.182872535E+00  2.162332794E+00  1.724338975E+00  0.00000E+00  9.000E+00
      11     1     3     3     0     0  3.862713788E-01  4.030384680E-01  2.604092230E-01  6.160022803E-01  5.110000000E-04  0.00000E+00  9.000E+00
     -11     1     3     3     0     0 -5.406809284E-01  1.254579564E-01 -1.443281758E+00  1.546330514E+00  5.110000000E-04  0.00000E+00  9.000E+00
       4     1     1     2   511     0  5.941830390E-01 -3.296874005E-01 -2.850982685E+00  2.930844509E+00  0.000000000E+00  0.00000E+00  9.000E+00
      21     1     1     2   502   511 -4.397734894E-01 -1.988090238E-01 -5.011166220E-02  4.852184339E-01  2.434834179E-08  0.00000E+00  9.000E+00
#rwgt            1          28   522475.80419833330                3    11446650           0
<weights>
0.11145E+08
0.14346E+08
0.82146E+07
0.11442E+08
0.10093E+08
0.13039E+08
0.79708E+07
0.11242E+08
0.11041E+08
0.10541E+08
0.10512E+08
0.10828E+08
0.10860E+08
0.10557E+08
0.10524E+08
0.11286E+08
0.11323E+08
0.11780E+08
0.11804E+08
0.11803E+08
0.11727E+08
0.11843E+08
0.11877E+08
0.11531E+08
0.11566E+08
0.11518E+08
0.11099E+08
0.11756E+08
0.11557E+08
0.11811E+08
0.11862E+08
0.11240E+08
0.11264E+08
0.11126E+08
0.11212E+08
0.11294E+08
0.11026E+08
0.11186E+08
0.10925E+08
0.11235E+08
0.11068E+08
0.11212E+08
0.11076E+08
0.11838E+08
0.10514E+08
</weights>
</event>
<event>
      7  10001  1.11453E+07  1.27961E+00 -1.00000E+00  4.75643E-01
      21    -1     0     0   502   501  0.000000000E+00  0.000000000E+00  1.487048087E-01  1.487048087E-01  0.000000000E+00  0.00000E+00  9.000E+00
       2    -1     0     0   501     0  0.000000000E+00  0.000000000E+00 -1.663356587E+01  1.663356587E+01  0.000000000E+00  0.00000E+00  9.000E+00
      23     2     1     2     0     0 -2.398469448E-01 -2.960349535E-01 -1.525433837E+01  1.532303861E+01  1.398395408E+00  0.00000E+00  9.000E+00
      11     1     3     3     0     0 -7.012001856E-01 -4.172629303E-01 -5.852509056E+00  5.909116056E+00  5.110000000E-04  0.00000E+00  9.000E+00
     -11     1     3     3     0     0  4.613532408E-01  1.212279768E-01 -9.401829317E+00  9.413922552E+00  5.110000000E-04  0.00000E+00  9.000E+00
       2     1     1     2   512     0  2.192015641E-01  1.960394619E-01 -1.301869298E+00  1.334670171E+00  0.000000000E+00  0.00000E+00  9.000E+00
      21     1     1     2   502   512  2.064538069E-02  9.999549161E-02  7.134660504E-02  1.245619048E-01  3.573172929E-08  0.00000E+00  9.000E+00
#rwgt            2         189   8555183.3691495340                3    11507363           0
<weights>
0.11145E+08
0.11656E+08
0.10367E+08
0.14166E+08
0.83064E+07
0.91702E+07
0.13910E+08
0.11190E+08
0.11099E+08
0.10948E+08
0.10982E+08
0.11076E+08
0.11012E+08
0.10977E+08
0.10984E+08
0.11094E+08
0.11292E+08
0.11223E+08
0.11430E+08
0.11434E+08
0.11209E+08
0.11316E+08
0.11335E+08
0.11257E+08
0.11262E+08
0.11259E+08
0.11088E+08
0.11409E+08
0.11046E+08
0.11299E+08
0.11299E+08
0.11146E+08
0.11196E+08
0.11095E+08
0.11231E+08
0.11101E+08
0.11199E+08
0.10991E+08
0.11245E+08
0.11102E+08
0.11180E+08
0.11212E+08
0.11075E+08
0.11331E+08
0.10969E+08
</weights>
</event>
<event>
      7  10001  1.11453E+07  1.30806E+00 -1.00000E+00  4.68710E-01
       2    -1     0     0   501     0  0.000000000E+00  0.000000000E+00  6.826768842E+02  6.826768842E+02  0.000000000E+00  0.00000E+00  9.000E+00
      21    -1     0     0   502   511  0.000000000E+00  0.000000000E+00 -8.015292190E+01  8.015292190E+01  0.000000000E+00  0.00000E+00  9.000E+00
      23     2     1     2     0     0 -4.104227020E-01  6.147160071E-01  6.793498176E+02  6.793781342E+02  6.158583670E+00  0.00000E+00  9.000E+00
      11     1     3     3     0     0 -3.857002761E-01  1.145589774E+00  6.741778228E+02  6.741789064E+02  5.110000000E-04  0.00000E+00  9.000E+00
     -11     1     3     3     0     0 -2.472242594E-02 -5.308737671E-01  5.171994835E+00  5.199227730E+00  5.110000000E-04  0.00000E+00  9.000E+00
       2     1     1     2   502     0 -8.602470381E-01 -9.252404202E-01  3.186922716E+00  3.428202328E+00  0.000000000E+00  0.00000E+00  9.000E+00
      21     1     1     2   501   511  1.270669740E+00  3.105244131E-01 -8.001277808E+01  8.002346957E+01  2.697398305E-06  0.00000E+00  9.000E+00
#rwgt            1          24   82652568.481434643                3    11508545           0
<weights>
0.11145E+08
0.11872E+08
0.10085E+08
0.12732E+08
0.93862E+07
0.10411E+08
0.12006E+08
0.11163E+08
0.11127E+08
0.10785E+08
0.10756E+08
0.10946E+08
0.10976E+08
0.10795E+08
0.10769E+08
0.11234E+08
0.11239E+08
0.11519E+08
0.11565E+08
0.11552E+08
0.11492E+08
0.11570E+08
0.11580E+08
0.11475E+08
0.11339E+08
0.11307E+08
0.11387E+08
0.11496E+08
0.11420E+08
0.11553E+08
0.11582E+08
0.11203E+08
0.11218E+08
0.11132E+08
0.11190E+08
0.11200E+08
0.11112E+08
0.11202E+08
0.11009E+08
0.11185E+08
0.11112E+08
0.11194E+08
0.11095E+08
0.11564E+08
0.10763E+08
</weights>
</event>
<event>
      7  10001  1.11453E+07  8.94427E-01 -1.00000E+00  6.07649E-01
       2    -1     0     0   501     0  0.000000000E+00  0.000000000E+00  3.798608455E-01  3.798608455E-01  0.000000000E+00  0.00000E+00  9.000E+00
      21    -1     0     0   511   502  0.000000000E+00  0.000000000E+00 -5.047329300E+01  5.047329300E+01  0.000000000E+00  0.00000E+00  9.000E+00
      23     2     1     2     0     0 -1.981271575E-01 -2.362719964E-01 -7.438547301E-01  1.488048866E+00  1.251355561E+00  0.00000E+00  9.000E+00
      11     1     3     3     0     0 -4.077333827E-01  2.568630883E-01  9.643553991E-02  4.914521665E-01  5.110000000E-04  0.00000E+00  9.000E+00
     -11     1     3     3     0     0  2.096062252E-01 -4.931350848E-01 -8.402902700E-01  9.965966990E-01  5.110000000E-04  0.00000E+00  9.000E+00
      21     1     1     2   501   502  2.565637850E-01  3.457949095E-01 -4.879099314E+01  4.879289303E+01  1.168007728E-06  0.00000E+00  9.000E+00
       2     1     1     2   511     0 -5.843662745E-02 -1.095229131E-01 -5.585842922E-01  5.722119532E-01  0.000000000E+00  0.00000E+00  9.000E+00
#rwgt            2         249   1359838.2517499889                3    11724658           0
<weights>
0.11145E+08
0.10479E+08
0.11780E+08
0.12736E+08
0.94387E+07
0.91702E+07
0.13910E+08
0.11209E+08
0.11082E+08
0.11010E+08
0.11076E+08
0.11024E+08
0.11168E+08
0.11066E+08
0.11079E+08
0.11181E+08
0.11096E+08
0.11205E+08
0.11189E+08
0.11184E+08
0.11204E+08
0.11196E+08
0.11215E+08
0.11128E+08
0.11249E+08
0.11221E+08
0.11081E+08
0.11181E+08
0.11136E+08
0.11152E+08
0.11202E+08
0.11101E+08
0.11208E+08
0.11158E+08
0.11131E+08
0.11259E+08
0.11041E+08
0.10877E+08
0.11430E+08
0.11081E+08
0.11205E+08
0.11132E+08
0.11159E+08
0.11236E+08
0.11049E+08
</weights>
</event>
<event>
      7  10001  1.11453E+07  1.04262E+00 -1.00000E+00  5.46690E-01
      21    -1     0     0   502   501  0.000000000E+00  0.000000000E+00  4.043979722E-02  4.043979722E-02  0.000000000E+00  0.00000E+00  9.000E+00
       2    -1     0     0   501     0  0.000000000E+00  0.000000000E+00 -2.284252136E+01  2.284252136E+01  0.000000000E+00  0.00000E+00  9.000E+00
      23     2     1     2     0     0  4.117888703E-01  1.461500761E-02 -1.548818815E+01  1.552937067E+01  1.052424595E+00  0.00000E+00  9.000E+00
      11     1     3     3     0     0  2.640458516E-01  1.282129672E-01 -1.057560618E+00  1.097539748E+00  5.110000000E-04  0.00000E+00  9.000E+00
     -11     1     3     3     0     0  1.477430186E-01 -1.135979596E-01 -1.443062753E+01  1.443183092E+01  5.110000000E-04  0.00000E+00  9.000E+00
       2     1     1     2   511     0  1.308864669E-02 -4.801590591E-02 -5.031563834E+00  5.031809959E+00  0.000000000E+00  0.00000E+00  9.000E+00
      21     1     1     2   502   511 -4.248775170E-01  3.340089830E-02 -2.282329580E+00  2.321780532E+00  5.161913656E-08  0.00000E+00  9.000E+00
#rwgt            2         189   20328165.492020685                3    11726239           0
<weights>
0.11145E+08
0.11841E+08
0.10192E+08
0.14391E+08
0.81665E+07
0.91702E+07
0.13910E+08
0.11197E+08
0.11093E+08
0.10979E+08
0.11020E+08
0.11098E+08
0.11021E+08
0.11011E+08
0.11020E+08
0.11086E+08
0.11277E+08
0.11173E+08
0.11406E+08
0.11413E+08
0.11160E+08
0.11275E+08
0.11290E+08
0.11246E+08
0.11224E+08
0.11221E+08
0.11105E+08
0.11387E+08
0.11002E+08
0.11261E+08
0.11255E+08
0.11145E+08
0.11184E+08
0.11085E+08
0.11241E+08
0.11106E+08
0.11191E+08
0.10984E+08
0.11271E+08
0.11091E+08
0.11189E+08
0.11212E+08
0.11075E+08
0.11292E+08
0.11005E+08
</weights>
</event>
<event>
      7  10001  1.11453E+07  1.46732E+00 -1.00000E+00  4.33782E-01
      -2    -1     0     0     0   502  0.000000000E+00  0.000000000E+00  1.479320678E+00  1.479320678E+00  0.000000000E+00  0.00000E+00  9.000E+00
      21    -1     0     0   502   512  0.000000000E+00  0.000000000E+00 -7.625644253E+01  7.625644253E+01  0.000000000E+00  0.00000E+00  9.000E+00
      23     2     1     2     0     0  1.212850523E-02 -1.438911954E-01  7.113909707E-01  2.129768162E+00  2.002244624E+00  0.00000E+00  9.000E+00
      11     1     3     3     0     0  1.815867927E-01  7.397971545E-01 -2.607275894E-01  8.051414348E-01  5.110000000E-04  0.00000E+00  9.000E+00
     -11     1     3     3     0     0 -1.694582875E-01 -8.836883499E-01  9.721185601E-01  1.324626727E+00  5.110000000E-04  0.00000E+00  9.000E+00
      -2     1     1     2     0   501 -5.108640491E-01 -1.236071458E+00 -8.774648322E+00  8.875996164E+00  0.000000000E+00  0.00000E+00  9.000E+00
      21     1     1     2   501   512  4.987355439E-01  1.379962654E+00 -6.671386450E+01  6.672999888E+01  9.536743164E-07  0.00000E+00  9.000E+00
#rwgt            1           7   3183291.1243124851                3    11727782           0
<weights>
0.11145E+08
0.12144E+08
0.10024E+08
0.12629E+08
0.94745E+07
0.10636E+08
0.11660E+08
0.11220E+08
0.11066E+08
0.10787E+08
0.10794E+08
0.10934E+08
0.11010E+08
0.10809E+08
0.10802E+08
0.11234E+08
0.11217E+08
0.11493E+08
0.11509E+08
0.11507E+08
0.11465E+08
0.11519E+08
0.11562E+08
0.11322E+08
0.11418E+08
0.11376E+08
0.11068E+08
0.11469E+08
0.11351E+08
0.11487E+08
0.11534E+08
0.11177E+08
0.11228E+08
0.11135E+08
0.11179E+08
0.11269E+08
0.11040E+08
0.11056E+08
0.11111E+08
0.11165E+08
0.11129E+08
0.11176E+08
0.11113E+08
0.11534E+08
0.10787E+08
</weights>
</event>
<event>
      7  10001  1.11453E+07  2.08199E+00 -1.00000E+00  3.46663E-01
       4    -1     0     0   501     0  0.000000000E+00  0.000000000E+00  1.266277481E+01  1.266277481E+01  0.000000000E+00  0.00000E+00  9.000E+00
      21    -1     0     0   502   511  0.000000000E+00  0.000000000E+00 -3.093541812E+01  3.093541812E+01  0.000000000E+00  0.00000E+00  9.000E+00
      23     2     1     2     0     0  1.986395972E+00 -7.792622196E-02  1.102588799E+01  1.125790700E+01  1.103821855E+00  0.00000E+00  9.000E+00
      11     1     3     3     0     0  6.439822814E-01 -1.683796757E-01  1.548649715E+00  1.685639670E+00  5.110000000E-04  0.00000E+00  9.000E+00
     -11     1     3     3     0     0  1.342413691E+00  9.045345379E-02  9.477238273E+00  9.572267333E+00  5.110000000E-04  0.00000E+00  9.000E+00
       4     1     1     2   502     0 -1.040438983E+00  1.932612445E+00  6.736086645E-01  2.295920899E+00  0.000000000E+00  0.00000E+00  9.000E+00
      21     1     1     2   501   511 -9.459569896E-01 -1.854686223E+00 -2.997213996E+01  3.004436502E+01  3.371747881E-07  0.00000E+00  9.000E+00
#rwgt            1          28   2222206.3408491258                3    11781065           0
<weights>
0.11145E+08
0.14113E+08
0.81348E+07
0.12882E+08
0.90823E+07
0.11960E+08
0.96275E+07
0.11182E+08
0.11104E+08
0.10730E+08
0.10688E+08
0.10918E+08
0.10946E+08
0.10733E+08
0.10703E+08
0.11245E+08
0.11270E+08
0.11592E+08
0.11629E+08
0.11621E+08
0.11558E+08
0.11647E+08
0.11662E+08
0.11491E+08
0.11394E+08
0.11365E+08
0.11269E+08
0.11574E+08
0.11460E+08
0.11633E+08
0.11661E+08
0.11221E+08
0.11224E+08
0.11126E+08
0.11201E+08
0.11219E+08
0.11094E+08
0.11242E+08
0.10946E+08
0.11204E+08
0.11095E+08
0.11198E+08
0.11090E+08
0.11636E+08
0.10699E+08
</weights>
</event>
<event>
      7  10001  1.11453E+07  1.05639E+01 -1.00000E+00  1.92587E-01
       1    -1     0     0   501     0  0.000000000E+00  0.000000000E+00  1.616893849E+02  1.616893849E+02  0.000000000E+00  0.00000E+00  9.000E+00
      21    -1     0     0   502   501  0.000000000E+00  0.000000000E+00 -2.382689003E-01  2.382689003E-01  0.000000000E+00  0.00000E+00  9.000E+00
      23     2     1     2     0     0  7.644522428E-01  3.600024204E-01  1.477457135E+02  1.477568913E+02  1.609054145E+00  0.00000E+00  9.000E+00
      11     1     3     3     0     0  6.634026470E-01  9.751855284E-01  8.740819120E+01  8.741614828E+01  5.110000000E-04  0.00000E+00  9.000E+00
     -11     1     3     3     0     0  1.010495958E-01 -6.151831080E-01  6.033752233E+01  6.034074298E+01  5.110000000E-04  0.00000E+00  9.000E+00
       1     1     1     2   511     0  5.386990507E-02 -5.434508484E-01  1.315790827E+01  1.316923653E+01  0.000000000E+00  0.00000E+00  9.000E+00
      21     1     1     2   502   511 -8.183221478E-01  1.834484280E-01  5.474941874E-01  1.001526010E+00  1.161215473E-06  0.00000E+00  9.000E+00
#rwgt            2         218   1177787.2671334501                3    11847178           0
<weights>
0.11145E+08
0.10719E+08
0.11408E+08
0.13028E+08
0.91406E+07
0.91702E+07
0.13910E+08
0.11185E+08
0.11103E+08
0.10832E+08
0.10827E+08
0.10964E+08
0.11016E+08
0.10851E+08
0.10837E+08
0.11227E+08
0.11201E+08
0.11452E+08
0.11479E+08
0.11471E+08
0.11429E+08
0.11486E+08
0.11507E+08
0.11371E+08
0.11336E+08
0.11290E+08
0.11248E+08
0.11423E+08
0.11357E+08
0.11461E+08
0.11498E+08
0.11180E+08
0.11216E+08
0.11138E+08
0.11175E+08
0.11219E+08
0.11089E+08
0.11114E+08
0.11102E+08
0.11162E+08
0.11131E+08
0.11182E+08
0.11107E+08
0.11492E+08
0.10825E+08
</weights>
</event>
<event>
      6  10001 -1.11453E+07  8.94427E-01 -1.00000E+00  1.43703E-01
       4    -1     0     0   501     0  0.000000000E+00  0.000000000E+00  4.045115854E+01  4.045115854E+01  0.000000000E+00  0.00000E+00  9.000E+00
      21    -1     0     0   502   501  0.000000000E+00  0.000000000E+00 -1.571520317E-02  1.571520317E-02  0.000000000E+00  0.00000E+00  9.000E+00
      23     2     1     2     0     0 -3.492205705E-01 -8.810268554E-03  3.644117527E+01  3.645735881E+01  1.028456877E+00  0.00000E+00  9.000E+00
      11     1     3     3     0     0  1.885615016E-02  1.954942889E-01  1.405671654E+00  1.419326119E+00  5.110000000E-04  0.00000E+00  9.000E+00
     -11     1     3     3     0     0 -3.680767206E-01 -2.043045575E-01  3.503550362E+01  3.503803269E+01  5.110000000E-04  0.00000E+00  9.000E+00
       4     1     1     2   502     0  3.492205705E-01  8.810268554E-03  3.994268059E+00  4.009514927E+00  0.000000000E+00  0.00000E+00  9.000E+00
#rwgt            1          28  -3785221.0916349082                3    11847296           0
<weights>
-.11145E+08
-.13051E+08
-.90913E+07
-.15870E+08
-.72847E+07
-.91662E+07
-.13909E+08
-.11177E+08
-.11114E+08
-.10835E+08
-.10831E+08
-.10966E+08
-.11016E+08
-.10855E+08
-.10841E+08
-.11224E+08
-.11201E+08
-.11445E+08
-.11482E+08
-.11472E+08
-.11422E+08
-.11480E+08
-.11502E+08
-.11385E+08
-.11328E+08
-.11282E+08
-.11317E+08
-.11416E+08
-.11356E+08
-.11455E+08
-.11492E+08
-.11177E+08
-.11217E+08
-.11139E+08
-.11174E+08
-.11213E+08
-.11095E+08
-.11109E+08
-.11109E+08
-.11161E+08
-.11133E+08
-.11182E+08
-.11107E+08
-.11488E+08
-.10830E+08
</weights>
</event>
<event>
      7  10001  1.11453E+07  1.65196E+00 -1.00000E+00  3.93570E-01
      21    -1     0     0   502   511  0.000000000E+00  0.000000000E+00  1.845756287E+01  1.845756287E+01  0.000000000E+00  0.00000E+00  9.000E+00
      -2    -1     0     0     0   502  0.000000000E+00  0.000000000E+00 -4.237670818E+01  4.237670818E+01  0.000000000E+00  0.00000E+00  9.000E+00
      23     2     1     2     0     0  5.596811241E-01  3.897149306E-01 -3.112444271E+01  3.117896212E+01  1.712198655E+00  0.00000E+00  9.000E+00
      11     1     3     3     0     0 -3.915642342E-01  5.310760572E-02 -2.092145901E+00  2.129135435E+00  5.110000000E-04  0.00000E+00  9.000E+00
     -11     1     3     3     0     0  9.512453583E-01  3.366073249E-01 -2.903229681E+01  2.904982669E+01  5.110000000E-04  0.00000E+00  9.000E+00
      -2     1     1     2     0   501 -2.111728442E+00 -9.555061158E-01 -1.106769487E+01  1.130779637E+01  0.000000000E+00  0.00000E+00  9.000E+00
      21     1     1     2   501   511  1.552047318E+00  5.657911851E-01  1.827299227E+01  1.834751256E+01  4.129530925E-07  0.00000E+00  9.000E+00
#rwgt            1          14   1193023.2399124333                3    11849368           0
<weights>
0.11145E+08
0.14175E+08
0.80674E+07
0.12901E+08
0.91837E+07
0.12048E+08
0.94928E+07
0.11261E+08
0.11030E+08
0.10871E+08
0.10954E+08
0.11013E+08
0.10971E+08
0.10931E+08
0.10947E+08
0.11053E+08
0.11342E+08
0.11372E+08
0.11302E+08
0.11265E+08
0.11380E+08
0.11331E+08
0.11393E+08
0.11269E+08
0.11300E+08
0.11395E+08
0.11010E+08
0.11337E+08
0.11079E+08
0.11285E+08
0.11338E+08
0.11052E+08
0.11299E+08
0.11306E+08
0.10997E+08
0.10907E+08
0.11380E+08
0.10850E+08
0.11405E+08
0.11128E+08
0.11144E+08
0.11319E+08
0.10959E+08
0.11374E+08
0.10924E+08
</weights>
</event>
<event>
      6  10001 -1.11453E+07  8.94427E-01 -1.00000E+00  2.01794E-01
       5    -1     0     0   501     0  0.000000000E+00  0.000000000E+00  1.280497013E-02  1.280497013E-02  0.000000000E+00  0.00000E+00  9.000E+00
      -5    -1     0     0     0   502  0.000000000E+00  0.000000000E+00 -7.280884712E+01  7.280884712E+01  0.000000000E+00  0.00000E+00  9.000E+00
      23     2     1     2     0     0 -3.931349232E-02  3.106377121E-01 -6.160746405E+01  6.162869354E+01  1.586883334E+00  0.00000E+00  9.000E+00
      11     1     3     3     0     0  3.784274550E-01  7.818634466E-01 -4.649726464E+01  4.650537751E+01  5.110000000E-04  0.00000E+00  9.000E+00
     -11     1     3     3     0     0 -4.177409473E-01 -4.712257345E-01 -1.511019941E+01  1.512331603E+01  5.110000000E-04  0.00000E+00  9.000E+00
      21     1     1     2   501   502  3.931349232E-02 -3.106377121E-01 -1.118857810E+01  1.119295856E+01  2.064765462E-07  0.00000E+00  9.000E+00
#rwgt            1          29  -95820.428362117367                3    11861836           0
<weights>
-.11145E+08
-.13973E+08
-.82289E+07
-.16982E+08
-.65934E+07
-.91702E+07
-.13910E+08
-.11166E+08
-.11124E+08
-.11155E+08
-.11187E+08
-.11053E+08
-.11280E+08
-.11209E+08
-.11206E+08
-.11149E+08
-.11064E+08
-.11082E+08
-.11026E+08
-.11021E+08
-.11092E+08
-.11067E+08
-.11029E+08
-.11108E+08
-.11081E+08
-.11108E+08
-.11137E+08
-.11081E+08
-.11053E+08
-.11038E+08
-.11060E+08
-.11106E+08
-.11161E+08
-.11150E+08
-.11134E+08
-.11222E+08
-.11073E+08
-.10938E+08
-.11412E+08
-.11034E+08
-.11249E+08
-.11097E+08
-.11197E+08
-.11091E+08
-.11179E+08
</weights>
</event>
<event>
      6  10001 -1.11453E+07  8.94427E-01 -1.00000E+00  3.47641E-01
      21    -1     0     0   502   501  0.000000000E+00  0.000000000E+00  2.390214017E-02  2.390214017E-02  0.000000000E+00  0.00000E+00  9.000E+00
      -2    -1     0     0     0   502  0.000000000E+00  0.000000000E+00 -8.057024164E+01  8.057024164E+01  0.000000000E+00  0.00000E+00  9.000E+00
      23     2     1     2     0     0  2.227648922E-01  1.323971687E-01 -7.971198818E+01  7.972047604E+01  1.134057368E+00  0.00000E+00  9.000E+00
      11     1     3     3     0     0  8.451240869E-02  5.689461571E-01 -6.165326943E+01  6.165595246E+01  5.110000000E-04  0.00000E+00  9.000E+00
     -11     1     3     3     0     0  1.382524835E-01 -4.365489884E-01 -1.805871876E+01  1.806452358E+01  5.110000000E-04  0.00000E+00  9.000E+00
      -2     1     1     2     0   501 -2.227648922E-01 -1.323971687E-01 -8.343513196E-01  8.736677470E-01  0.000000000E+00  0.00000E+00  9.000E+00
#rwgt            1          14  -12362580.836118516                3    11863095           0
<weights>
-.11145E+08
-.12181E+08
-.99642E+07
-.14804E+08
-.79838E+07
-.91702E+07
-.13910E+08
-.11191E+08
-.11099E+08
-.11117E+08
-.11167E+08
-.11080E+08
-.11149E+08
-.11171E+08
-.11171E+08
-.11066E+08
-.11194E+08
-.11157E+08
-.11030E+08
-.11004E+08
-.11174E+08
-.11102E+08
-.11092E+08
-.11153E+08
-.11099E+08
-.11155E+08
-.11109E+08
-.11111E+08
-.11006E+08
-.11081E+08
-.11105E+08
-.11113E+08
-.11163E+08
-.11279E+08
-.11012E+08
-.11057E+08
-.11217E+08
-.11002E+08
-.11323E+08
-.11092E+08
-.11181E+08
-.11263E+08
-.11018E+08
-.11123E+08
-.11154E+08
</weights>
</event>
<event>
      7  10001  1.11453E+07  8.94427E-01 -1.00000E+00  6.07649E-01
      -1    -1     0     0     0   502  0.000000000E+00  0.000000000E+00  9.413731114E+00  9.413731114E+00  0.000000000E+00  0.00000E+00  9.000E+00
       1    -1     0     0   502     0  0.000000000E+00  0.000000000E+00 -3.287876175E-01  3.287876175E-01  0.000000000E+00  0.00000E+00  9.000E+00
      23     2     1     2     0     0  1.506938714E-01  3.853426417E-01  1.959953863E+00  2.499377455E+00  1.494747778E+00  0.00000E+00  9.000E+00
      11     1     3     3     0     0  2.935014114E-01 -4.642996934E-01  1.308915841E+00  1.419499286E+00  5.110000000E-04  0.00000E+00  9.000E+00
     -11     1     3     3     0     0 -1.428075400E-01  8.496423351E-01  6.510380221E-01  1.079878168E+00  5.110000000E-04  0.00000E+00  9.000E+00
      -1     1     1     2     0   501 -1.422074155E-01 -2.782043211E-01  7.128757669E+00  7.135601341E+00  0.000000000E+00  0.00000E+00  9.000E+00
       1     1     1     2   501     0 -8.486455865E-03 -1.071383206E-01 -3.768035931E-03  1.075399357E-01  0.000000000E+00  0.00000E+00  9.000E+00
#rwgt            2         137   6654.3911667553139                3    11863633           0
<weights>
0.11145E+08
0.11649E+08
0.10434E+08
0.14158E+08
0.83602E+07
0.91702E+07
0.13910E+08
0.11064E+08
0.11245E+08
0.10833E+08
0.10810E+08
0.10963E+08
0.11003E+08
0.10846E+08
0.10823E+08
0.11232E+08
0.11213E+08
0.11500E+08
0.11445E+08
0.11429E+08
0.11483E+08
0.11502E+08
0.11516E+08
0.11393E+08
0.11323E+08
0.11339E+08
0.11182E+08
0.11436E+08
0.11363E+08
0.11483E+08
0.11511E+08
0.11171E+08
0.11230E+08
0.11171E+08
0.11146E+08
0.11117E+08
0.11201E+08
0.11146E+08
0.11073E+08
0.11161E+08
0.11131E+08
0.11200E+08
0.11087E+08
0.11502E+08
0.10818E+08
</weights>
</event>
<event>
      7  10001  1.11453E+07  2.22389E+00 -1.00000E+00  3.35346E-01
      -2    -1     0     0     0   502  0.000000000E+00  0.000000000E+00  5.839803519E+01  5.839803519E+01  0.000000000E+00  0.00000E+00  9.000E+00
      21    -1     0     0   502   501  0.000000000E+00  0.000000000E+00 -6.017897658E-02  6.017897658E-02  0.000000000E+00  0.00000E+00  9.000E+00
      23     2     1     2     0     0 -5.753301112E-01  1.167799756E-01  5.263276552E+01  5.264611863E+01  1.030125218E+00  0.00000E+00  9.000E+00
      11     1     3     3     0     0 -1.953856198E-02 -3.634520830E-01  9.286613827E+00  9.293743907E+00  5.110000000E-04  0.00000E+00  9.000E+00
     -11     1     3     3     0     0 -5.557915492E-01  4.802320586E-01  4.334615169E+01  4.335237472E+01  5.110000000E-04  0.00000E+00  9.000E+00
      -2     1     1     2     0   511 -5.539629318E-02  2.596106934E-01  2.910947979E+00  2.923026616E+00  0.000000000E+00  0.00000E+00  9.000E+00
      21     1     1     2   511   501  6.307264043E-01 -3.763906690E-01  2.794142711E+00  2.889068920E+00  1.576990671E-07  0.00000E+00  9.000E+00
#rwgt            2         101   717351.04894426896                3    11867703           0
<weights>
0.11145E+08
0.11409E+08
0.10598E+08
0.13866E+08
0.84920E+07
0.91702E+07
0.13910E+08
0.11172E+08
0.11118E+08
0.10819E+08
0.10807E+08
0.10960E+08
0.11003E+08
0.10836E+08
0.10818E+08
0.11227E+08
0.11213E+08
0.11469E+08
0.11509E+08
0.11498E+08
0.11445E+08
0.11509E+08
0.11527E+08
0.11415E+08
0.11331E+08
0.11290E+08
0.11340E+08
0.11442E+08
0.11377E+08
0.11487E+08
0.11521E+08
0.11186E+08
0.11217E+08
0.11137E+08
0.11179E+08
0.11209E+08
0.11101E+08
0.11140E+08
0.11076E+08
0.11168E+08
0.11126E+08
0.11186E+08
0.11103E+08
0.11512E+08
0.10808E+08
</weights>
</event>
<event>
      6  10001 -1.11453E+07  8.94427E-01 -1.00000E+00  4.28136E-01
      -4    -1     0     0     0   502  0.000000000E+00  0.000000000E+00  8.607533151E-02  8.607533151E-02  0.000000000E+00  0.00000E+00  9.000E+00
       4    -1     0     0   501     0  0.000000000E+00  0.000000000E+00 -2.286662119E+02  2.286662119E+02  0.000000000E+00  0.00000E+00  9.000E+00
      23     2     1     2     0     0 -1.126546046E-01  2.598782394E-01 -2.183387646E+02  2.185069992E+02  8.568099525E+00  0.00000E+00  9.000E+00
      11     1     3     3     0     0  1.593627638E+00  3.420534707E+00 -1.670513721E+02  1.670939874E+02  5.110000000E-04  0.00000E+00  9.000E+00
     -11     1     3     3     0     0 -1.706282242E+00 -3.160656468E+00 -5.128739252E+01  5.141301178E+01  5.110000000E-04  0.00000E+00  9.000E+00
      21     1     1     2   501   502  1.126546046E-01 -2.598782394E-01 -1.024137196E+01  1.024528806E+01  1.685873940E-07  0.00000E+00  9.000E+00
#rwgt            1           4  -388982.86085555080                3    11867745           0
<weights>
-.11145E+08
-.83015E+07
-.13582E+08
-.14812E+08
-.78880E+07
-.60133E+07
-.18756E+08
-.10863E+08
-.11428E+08
-.11896E+08
-.11515E+08
-.11336E+08
-.11572E+08
-.11592E+08
-.11599E+08
-.10972E+08
-.11246E+08
-.10708E+08
-.10798E+08
-.10815E+08
-.10733E+08
-.10695E+08
-.10709E+08
-.11141E+08
-.10592E+08
-.10805E+08
-.11294E+08
-.10874E+08
-.10916E+08
-.10862E+08
-.10686E+08
-.11316E+08
-.10834E+08
-.11032E+08
-.11263E+08
-.10853E+08
-.11407E+08
-.12021E+08
-.10285E+08
-.11054E+08
-.11236E+08
-.11020E+08
-.11280E+08
-.10599E+08
-.11695E+08
</weights>
</event>
<event>
      6  10001 -1.11453E+07  8.94427E-01 -1.00000E+00  5.96607E-01
      21    -1     0     0   502   501  0.000000000E+00  0.000000000E+00  1.350598574E-02  1.350598574E-02  0.000000000E+00  0.00000E+00  9.000E+00
       1    -1     0     0   501     0  0.000000000E+00  0.000000000E+00 -5.823860006E+01  5.823860006E+01  0.000000000E+00  0.00000E+00  9.000E+00
      23     2     1     2     0     0 -2.946320804E-01 -4.255720647E-01 -3.590834800E+01  3.592935812E+01  1.114180923E+00  0.00000E+00  9.000E+00
      11     1     3     3     0     0 -6.368637089E-01 -4.051156817E-01 -3.093506534E+01  3.094427220E+01  5.110000000E-04  0.00000E+00  9.000E+00
     -11     1     3     3     0     0  3.422316285E-01 -2.045638301E-02 -4.973282655E+00  4.985085915E+00  5.110000000E-04  0.00000E+00  9.000E+00
       1     1     1     2   502     0  2.946320804E-01  4.255720647E-01 -2.231674607E+01  2.232274792E+01  0.000000000E+00  0.00000E+00  9.000E+00
#rwgt            1          16  -818899.25014464720                3    11869698           0
<weights>
-.11145E+08
-.12413E+08
-.97397E+07
-.15087E+08
-.78040E+07
-.91702E+07
-.13910E+08
-.11217E+08
-.11074E+08
-.11092E+08
-.11105E+08
-.11032E+08
-.11165E+08
-.11117E+08
-.11124E+08
-.10784E+08
-.11512E+08
-.11045E+08
-.11222E+08
-.11206E+08
-.11034E+08
-.11173E+08
-.11141E+08
-.11208E+08
-.11097E+08
-.11176E+08
-.11103E+08
-.11141E+08
-.11028E+08
-.11144E+08
-.11152E+08
-.11100E+08
-.11193E+08
-.11036E+08
-.11197E+08
-.11066E+08
-.11216E+08
-.11000E+08
-.11307E+08
-.11138E+08
-.11142E+08
-.11223E+08
-.11062E+08
-.11176E+08
-.11109E+08
</weights>
</event>
<event>
      6  10001 -1.11453E+07  8.94427E-01 -1.00000E+00  4.99703E-01
      21    -1     0     0   502   501  0.000000000E+00  0.000000000E+00  1.058494528E-02  1.058494528E-02  0.000000000E+00  0.00000E+00  9.000E+00
       2    -1     0     0   501     0  0.000000000E+00  0.000000000E+00 -2.577410402E+02  2.577410402E+02  0.000000000E+00  0.00000E+00  9.000E+00
      23     2     1     2     0     0  5.086080471E-01  7.149253946E-01 -1.715567509E+02  1.715734543E+02  2.227477419E+00  0.00000E+00  9.000E+00
      11     1     3     3     0     0  1.118460832E+00 -3.438389798E-01 -8.750309620E+01  8.751091946E+01  5.110000000E-04  0.00000E+00  9.000E+00
     -11     1     3     3     0     0 -6.098527853E-01  1.058764374E+00 -8.405365469E+01  8.406253487E+01  5.110000000E-04  0.00000E+00  9.000E+00
       2     1     1     2   502     0 -5.086080471E-01 -7.149253946E-01 -8.617370440E+01  8.617817085E+01  0.000000000E+00  0.00000E+00  9.000E+00
#rwgt            1          17  -6172750.7516886629                3    11871654           0
<weights>
-.11145E+08
-.12084E+08
-.10039E+08
-.14687E+08
-.80440E+07
-.91702E+07
-.13910E+08
-.11127E+08
-.11162E+08
-.11172E+08
-.11165E+08
-.11072E+08
-.11236E+08
-.11167E+08
-.11165E+08
-.11328E+08
-.10865E+08
-.11296E+08
-.10883E+08
-.10852E+08
-.11312E+08
-.11103E+08
-.11149E+08
-.11150E+08
-.11089E+08
-.11174E+08
-.11118E+08
-.10961E+08
-.11296E+08
-.11094E+08
-.11150E+08
-.11043E+08
-.11241E+08
-.11295E+08
-.10949E+08
-.11132E+08
-.11155E+08
-.11170E+08
-.11121E+08
-.11184E+08
-.11108E+08
-.11157E+08
-.11133E+08
-.11120E+08
-.11169E+08
</weights>
</event>
<event>
      7  10001  1.11453E+07  2.29572E+00 -1.00000E+00  3.30166E-01
      21    -1     0     0   502   501  0.000000000E+00  0.000000000E+00  7.433355831E-01  7.433355831E-01  0.000000000E+00  0.00000E+00  9.000E+00
      -4    -1     0     0     0   502  0.000000000E+00  0.000000000E+00 -9.930764781E+00  9.930764781E+00  0.000000000E+00  0.00000E+00  9.000E+00
      23     2     1     2     0     0  1.566214918E-01 -2.655925491E-01 -9.280977487E+00  9.497843695E+00  1.994347521E+00  0.00000E+00  9.000E+00
      11     1     3     3     0     0  8.172840935E-01 -8.073615644E-01 -5.881027939E+00  5.992184565E+00  5.110000000E-04  0.00000E+00  9.000E+00
     -11     1     3     3     0     0 -6.606626017E-01  5.417690153E-01 -3.399949549E+00  3.505659130E+00  5.110000000E-04  0.00000E+00  9.000E+00
      -4     1     1     2     0   511 -1.771655953E-02  4.392001377E-01 -4.253910808E-01  6.116929042E-01  0.000000000E+00  0.00000E+00  9.000E+00
      21     1     1     2   511   501 -1.389049323E-01 -1.736075886E-01  5.189393702E-01  5.645637652E-01  7.524717553E-08  0.00000E+00  9.000E+00
#rwgt            2         154   1090661.6222572227                3    11874187           0
<weights>
0.11145E+08
0.11612E+08
0.10365E+08
0.14113E+08
0.83046E+07
0.91702E+07
0.13910E+08
0.11229E+08
0.11059E+08
0.10823E+08
0.10855E+08
0.10943E+08
0.11053E+08
0.10856E+08
0.10861E+08
0.11215E+08
0.11200E+08
0.11428E+08
0.11450E+08
0.11447E+08
0.11407E+08
0.11444E+08
0.11497E+08
0.11262E+08
0.11407E+08
0.11377E+08
0.11041E+08
0.11414E+08
0.11286E+08
0.11403E+08
0.11459E+08
0.11150E+08
0.11234E+08
0.11144E+08
0.11162E+08
0.11289E+08
0.11019E+08
0.10966E+08
0.11223E+08
0.11141E+08
0.11151E+08
0.11158E+08
0.11132E+08
0.11473E+08
0.10839E+08
</weights>
</event>
<event>
      6  10001 -1.11453E+07  8.94427E-01 -1.00000E+00  1.45296E-01
      21    -1     0     0   502   501  0.000000000E+00  0.000000000E+00  2.241291989E-02  2.241291989E-02  0.000000000E+00  0.00000E+00  9.000E+00
      -4    -1     0     0     0   502  0.000000000E+00  0.000000000E+00 -6.464684972E+01  6.464684972E+01  0.000000000E+00  0.00000E+00  9.000E+00
      23     2     1     2     0     0  6.135936422E-02  2.530181346E-01 -6.286217997E+01  6.288787771E+01  1.778681705E+00  0.00000E+00  9.000E+00
      11     1     3     3     0     0  5.656632269E-01  2.416759315E-01 -8.081945758E+00  8.105321069E+00  5.110000000E-04  0.00000E+00  9.000E+00
     -11     1     3     3     0     0 -5.043038627E-01  1.134220305E-02 -5.478023422E+01  5.478255664E+01  5.110000000E-04  0.00000E+00  9.000E+00
      -4     1     1     2     0   501 -6.135936422E-02 -2.530181346E-01 -1.762256825E+00  1.781384929E+00  0.000000000E+00  0.00000E+00  9.000E+00
#rwgt            1          12  -1308422.1762195430                3    11875027           0
<weights>
-.11145E+08
-.12738E+08
-.93776E+07
-.15481E+08
-.75138E+07
-.91702E+07
-.13910E+08
-.11211E+08
-.11080E+08
-.11033E+08
-.11111E+08
-.10995E+08
-.11238E+08
-.11117E+08
-.11123E+08
-.11168E+08
-.11071E+08
-.11156E+08
-.11117E+08
-.11110E+08
-.11162E+08
-.11146E+08
-.11131E+08
-.11122E+08
-.11180E+08
-.11177E+08
-.11112E+08
-.11146E+08
-.11086E+08
-.11092E+08
-.11144E+08
-.11086E+08
-.11208E+08
-.11167E+08
-.11118E+08
-.11280E+08
-.11022E+08
-.10798E+08
-.11550E+08
-.11032E+08
-.11251E+08
-.11103E+08
-.11191E+08
-.11192E+08
-.11082E+08
</weights>
</event>
<event>
      7  10001  1.11453E+07  2.11299E+00 -1.00000E+00  3.44055E-01
      -4    -1     0     0     0   502  0.000000000E+00  0.000000000E+00  2.774059183E+00  2.774059183E+00  0.000000000E+00  0.00000E+00  9.000E+00
      21    -1     0     0   502   511  0.000000000E+00  0.000000000E+00 -1.000428210E+02  1.000428210E+02  0.000000000E+00  0.00000E+00  9.000E+00
      23     2     1     2     0     0 -2.088435605E+00 -6.324174469E-01  5.678037355E-01  2.710819531E+00  1.504867551E+00  0.00000E+00  9.000E+00
      11     1     3     3     0     0 -2.316384529E+00 -5.154337401E-01  4.052576833E-01  2.407393461E+00  5.110000000E-04  0.00000E+00  9.000E+00
     -11     1     3     3     0     0  2.279489241E-01 -1.169837069E-01  1.625460522E-01  3.034260699E-01  5.110000000E-04  0.00000E+00  9.000E+00
      -4     1     1     2     0   501  8.938553219E-01 -1.110481446E+00  6.711939495E-01  1.575641995E+00  0.000000000E+00  0.00000E+00  9.000E+00
      21     1     1     2   501   511  1.194580283E+00  1.742898893E+00 -9.850775951E+01  9.853041867E+01  1.348699152E-06  0.00000E+00  9.000E+00
#rwgt            1           3   420775.92377500137                3    11876524           0
<weights>
0.11145E+08
0.16542E+08
0.62177E+07
0.10774E+08
0.10271E+08
0.15105E+08
0.47999E+07
0.11186E+08
0.11098E+08
0.10567E+08
0.10481E+08
0.10843E+08
0.10845E+08
0.10551E+08
0.10501E+08
0.11270E+08
0.11373E+08
0.11800E+08
0.11857E+08
0.11849E+08
0.11748E+08
0.11887E+08
0.11896E+08
0.11662E+08
0.11490E+08
0.11484E+08
0.11300E+08
0.11800E+08
0.11606E+08
0.11881E+08
0.11902E+08
0.11273E+08
0.11244E+08
0.11113E+08
0.11234E+08
0.11231E+08
0.11091E+08
0.11391E+08
0.10760E+08
0.11262E+08
0.11045E+08
0.11219E+08
0.11069E+08
0.11854E+08
0.10506E+08
</weights>
</event>
<event>
      6  10001 -1.11453E+07  8.94427E-01 -1.00000E+00  3.07336E-01
      21    -1     0     0   502   501  0.000000000E+00  0.000000000E+00  1.665755311E-02  1.665755311E-02  0.000000000E+00  0.00000E+00  9.000E+00
       1    -1     0     0   501     0  0.000000000E+00  0.000000000E+00 -2.590565841E+02  2.590565841E+02  0.000000000E+00  0.00000E+00  9.000E+00
      23     2     1     2     0     0 -5.559847829E-01 -3.848115043E-01 -2.497690382E+02  2.497777282E+02  1.970756159E+00  0.00000E+00  9.000E+00
      11     1     3     3     0     0 -4.353320696E-02 -8.871914055E-01 -2.120706071E+02  2.120724674E+02  5.110000000E-04  0.00000E+00  9.000E+00
     -11     1     3     3     0     0 -5.124515759E-01  5.023799013E-01 -3.769843102E+01  3.770526083E+01  5.110000000E-04  0.00000E+00  9.000E+00
       1     1     1     2   502     0  5.559847829E-01  3.848115043E-01 -9.270888429E+00  9.295513500E+00  0.000000000E+00  0.00000E+00  9.000E+00
#rwgt            1          16  -3996414.9355680635                3    11896015           0
<weights>
-.11145E+08
-.11746E+08
-.10424E+08
-.14276E+08
-.83524E+07
-.91702E+07
-.13910E+08
-.11236E+08
-.11058E+08
-.11161E+08
-.11252E+08
-.11491E+08
-.10770E+08
-.11190E+08
-.11200E+08
-.10249E+08
-.12234E+08
-.10400E+08
-.11953E+08
-.12083E+08
-.10302E+08
-.11163E+08
-.11004E+08
-.11448E+08
-.10749E+08
-.10691E+08
-.11393E+08
-.11714E+08
-.10301E+08
-.11220E+08
-.11011E+08
-.11068E+08
-.11207E+08
-.10402E+08
-.11948E+08
-.11155E+08
-.11128E+08
-.11176E+08
-.11122E+08
-.11283E+08
-.11014E+08
-.11204E+08
-.11081E+08
-.11086E+08
-.11202E+08
</weights>
</event>
<event>
      6  10001 -1.11453E+07  8.94427E-01 -1.00000E+00  5.04756E-01
       2    -1     0     0   501     0  0.000000000E+00  0.000000000E+00  3.083644756E+02  3.083644756E+02  0.000000000E+00  0.00000E+00  9.000E+00
      21    -1     0     0   502   501  0.000000000E+00  0.000000000E+00 -3.198790355E-03  3.198790355E-03  0.000000000E+00  0.00000E+00  9.000E+00
      23     2     1     2     0     0 -7.100614191E-01  4.344623723E-02  2.212794837E+02  2.212829756E+02  1.019461870E+00  0.00000E+00  9.000E+00
      11     1     3     3     0     0  2.510360018E-01  9.635325630E-02  3.692371756E+01  3.692469664E+01  5.110000000E-04  0.00000E+00  9.000E+00
     -11     1     3     3     0     0 -9.610974209E-01 -5.290701907E-02  1.843557662E+02  1.843582790E+02  5.110000000E-04  0.00000E+00  9.000E+00
       2     1     1     2   502     0  7.100614191E-01 -4.344623723E-02  8.708179308E+01  8.708469877E+01  0.000000000E+00  0.00000E+00  9.000E+00
#rwgt            1          24  -14620092.353078054                3    11897345           0
<weights>
-.11145E+08
-.11799E+08
-.10285E+08
-.14352E+08
-.82416E+07
-.91631E+07
-.13909E+08
-.11168E+08
-.11125E+08
-.10820E+08
-.10808E+08
-.10961E+08
-.11003E+08
-.10837E+08
-.10819E+08
-.11226E+08
-.11214E+08
-.11466E+08
-.11512E+08
-.11499E+08
-.11443E+08
-.11507E+08
-.11526E+08
-.11424E+08
-.11327E+08
-.11287E+08
-.11382E+08
-.11440E+08
-.11377E+08
-.11486E+08
-.11520E+08
-.11185E+08
-.11217E+08
-.11137E+08
-.11179E+08
-.11206E+08
-.11105E+08
-.11138E+08
-.11078E+08
-.11168E+08
-.11126E+08
-.11186E+08
-.11102E+08
-.11511E+08
-.10809E+08
</weights>
</event>
<event>
      6  10001 -1.11453E+07  8.94427E-01 -1.00000E+00  1.81972E-01
      21    -1     0     0   502   501  0.000000000E+00  0.000000000E+00  5.069727814E-03  5.069727814E-03  0.000000000E+00  0.00000E+00  9.000E+00
       4    -1     0     0   501     0  0.000000000E+00  0.000000000E+00 -1.157789730E+02  1.157789730E+02  0.000000000E+00  0.00000E+00  9.000E+00
      23     2     1     2     0     0  2.026151044E-01 -2.507256115E-01 -7.323457101E+01  7.324348907E+01  1.096532669E+00  0.00000E+00  9.000E+00
      11     1     3     3     0     0  4.532820909E-02 -5.025256275E-01 -6.695740546E+01  6.695930654E+01  5.110000000E-04  0.00000E+00  9.000E+00
     -11     1     3     3     0     0  1.572868953E-01  2.518000160E-01 -6.277165550E+00  6.284182526E+00  5.110000000E-04  0.00000E+00  9.000E+00
       4     1     1     2   502     0 -2.026151044E-01  2.507256115E-01 -4.253933226E+01  4.254055366E+01  0.000000000E+00  0.00000E+00  9.000E+00
#rwgt            1          19  -678842.54562272539                3    11898145           0
<weights>
-.11144E+08
-.15811E+08
-.56328E+07
-.19216E+08
-.45133E+07
-.91689E+07
-.13908E+08
-.11123E+08
-.11162E+08
-.11275E+08
-.11265E+08
-.11060E+08
-.11383E+08
-.11324E+08
-.11304E+08
-.11130E+08
-.11028E+08
-.10987E+08
-.10892E+08
-.10889E+08
-.11005E+08
-.10966E+08
-.10881E+08
-.11102E+08
-.10932E+08
-.10997E+08
-.11188E+08
-.11000E+08
-.10993E+08
-.10953E+08
-.10949E+08
-.11119E+08
-.11111E+08
-.11135E+08
-.11143E+08
-.11185E+08
-.11100E+08
-.10999E+08
-.11360E+08
-.10981E+08
-.11295E+08
-.11064E+08
-.11229E+08
-.10976E+08
-.11280E+08
</weights>
</event>
<event>
      6  10001 -1.11453E+07  8.94427E-01 -1.00000E+00  4.73893E-01
      -2    -1     0     0     0   502  0.000000000E+00  0.000000000E+00  4.612287726E+01  4.612287726E+01  0.000000000E+00  0.00000E+00  9.000E+00
       2    -1     0     0   501     0  0.000000000E+00  0.000000000E+00 -2.415865363E-02  2.415865363E-02  0.000000000E+00  0.00000E+00  9.000E+00
      23     2     1     2     0     0 -6.361864422E-01  3.293685890E-01  3.562488257E+01  3.564872852E+01  1.089206118E+00  0.00000E+00  9.000E+00
      11     1     3     3     0     0 -1.734392517E-01 -3.116738600E-01  2.057678812E+01  2.057987929E+01  5.110000000E-04  0.00000E+00  9.000E+00
     -11     1     3     3     0     0 -4.627471904E-01  6.410424490E-01  1.504809445E+01  1.506884923E+01  5.110000000E-04  0.00000E+00  9.000E+00
      21     1     1     2   501   502  6.361864422E-01 -3.293685890E-01  1.047383604E+01  1.049830740E+01  1.192092896E-07  0.00000E+00  9.000E+00
#rwgt            1           8  -317177.94798477885                3    11899275           0
<weights>
-.11145E+08
-.13481E+08
-.87176E+07
-.16390E+08
-.69851E+07
-.91674E+07
-.13909E+08
-.11128E+08
-.11179E+08
-.10817E+08
-.10799E+08
-.10962E+08
-.10994E+08
-.10832E+08
-.10811E+08
-.11220E+08
-.11228E+08
-.11477E+08
-.11515E+08
-.11501E+08
-.11453E+08
-.11518E+08
-.11532E+08
-.11434E+08
-.11322E+08
-.11297E+08
-.11346E+08
-.11454E+08
-.11375E+08
-.11499E+08
-.11528E+08
-.11183E+08
-.11222E+08
-.11136E+08
-.11181E+08
-.11178E+08
-.11136E+08
-.11151E+08
-.11066E+08
-.11170E+08
-.11124E+08
-.11191E+08
-.11097E+08
-.11518E+08
-.10803E+08
</weights>
</event>
<event>
      6  10001 -1.11453E+07  8.94427E-01 -1.00000E+00  3.70061E-01
      21    -1     0     0   502   501  0.000000000E+00  0.000000000E+00  2.148718588E-02  2.148718588E-02  0.000000000E+00  0.00000E+00  9.000E+00
       2    -1     0     0   501     0  0.000000000E+00  0.000000000E+00 -8.960352587E+01  8.960352587E+01  0.000000000E+00  0.00000E+00  9.000E+00
      23     2     1     2     0     0 -2.201229710E-02 -1.143474384E+00 -5.251553661E+01  5.254087097E+01  1.163408217E+00  0.00000E+00  9.000E+00
      11     1     3     3     0     0  4.833193943E-02 -1.348627375E+00 -4.904629126E+01  4.906485319E+01  5.110000000E-04  0.00000E+00  9.000E+00
     -11     1     3     3     0     0 -7.034423653E-02  2.051529906E-01 -3.469245350E+00  3.476017782E+00  5.110000000E-04  0.00000E+00  9.000E+00
       2     1     1     2   502     0  2.201229710E-02  1.143474384E+00 -3.706650207E+01  3.708414208E+01  0.000000000E+00  0.00000E+00  9.000E+00
#rwgt            1          17  -15421160.423097147                3    11899489           0
<weights>
-.11145E+08
-.12770E+08
-.93914E+07
-.15520E+08
-.75249E+07
-.91702E+07
-.13910E+08
-.11158E+08
-.11132E+08
-.11141E+08
-.11161E+08
-.11161E+08
-.11107E+08
-.11160E+08
-.11161E+08
-.11168E+08
-.11076E+08
-.11078E+08
-.11179E+08
-.11186E+08
-.11073E+08
-.11124E+08
-.11119E+08
-.11233E+08
-.11028E+08
-.11067E+08
-.11179E+08
-.11225E+08
-.10968E+08
-.11133E+08
-.11114E+08
-.11129E+08
-.11153E+08
-.11087E+08
-.11217E+08
-.11133E+08
-.11152E+08
-.11110E+08
-.11191E+08
-.11095E+08
-.11184E+08
-.11196E+08
-.11091E+08
-.11131E+08
-.11155E+08
</weights>
</event>
<event>
      6  10001 -1.11453E+07  8.94427E-01 -1.00000E+00  5.47766E-01
      21    -1     0     0   502   501  0.000000000E+00  0.000000000E+00  2.514473924E-02  2.514473924E-02  0.000000000E+00  0.00000E+00  9.000E+00
      -5    -1     0     0     0   502  0.000000000E+00  0.000000000E+00 -5.707759609E+01  5.707759609E+01  0.000000000E+00  0.00000E+00  9.000E+00
      23     2     1     2     0     0  5.971672881E-01 -5.060778793E-02 -4.828482228E+01  4.831465290E+01  1.588223026E+00  0.00000E+00  9.000E+00
      11     1     3     3     0     0 -1.941516758E-01 -6.263372709E-01 -2.613272306E+01  2.614094888E+01  5.110000000E-04  0.00000E+00  9.000E+00
     -11     1     3     3     0     0  7.913189639E-01  5.757294829E-01 -2.215209921E+01  2.217370402E+01  5.110000000E-04  0.00000E+00  9.000E+00
      -5     1     1     2     0   501 -5.971672881E-01  5.060778793E-02 -8.767629072E+00  8.788087930E+00  0.000000000E+00  0.00000E+00  9.000E+00
#rwgt            1          11  -42828.999681531539                3    11901868           0
<weights>
-.11145E+08
-.46052E+07
-.16135E+08
-.14385E+08
-.85811E+07
-.38895E+07
-.22016E+08
-.11061E+08
-.11228E+08
-.11431E+08
-.11354E+08
-.11204E+08
-.11344E+08
-.11405E+08
-.11384E+08
-.11111E+08
-.11055E+08
-.10925E+08
-.10843E+08
-.10843E+08
-.10943E+08
-.10900E+08
-.10825E+08
-.11071E+08
-.10883E+08
-.10964E+08
-.11182E+08
-.10939E+08
-.10998E+08
-.10935E+08
-.10883E+08
-.11158E+08
-.11052E+08
-.11107E+08
-.11174E+08
-.11073E+08
-.11203E+08
-.11297E+08
-.11048E+08
-.11061E+08
-.11223E+08
-.11097E+08
-.11196E+08
-.10872E+08
-.11396E+08
</weights>
</event>
<event>
      6  10001 -1.11453E+07  8.94427E-01 -1.00000E+00  5.79133E-01
      21    -1     0     0   502   501  0.000000000E+00  0.000000000E+00  2.961126961E+02  2.961126961E+02  0.000000000E+00  0.00000E+00  9.000E+00
       4    -1     0     0   501     0  0.000000000E+00  0.000000000E+00 -7.290812893E-03  7.290812893E-03  0.000000000E+00  0.00000E+00  9.000E+00
      23     2     1     2     0     0 -1.915013203E-01 -3.227740380E-01  1.897930207E+02  1.898069399E+02  2.267787239E+00  0.00000E+00  9.000E+00
      11     1     3     3     0     0 -7.451867674E-01 -7.915649994E-02  2.187932791E+01  2.189215747E+01  5.110000000E-04  0.00000E+00  9.000E+00
     -11     1     3     3     0     0  5.536854471E-01 -2.436175380E-01  1.679136928E+02  1.679147824E+02  5.110000000E-04  0.00000E+00  9.000E+00
       4     1     1     2   502     0  1.915013203E-01  3.227740380E-01  1.063123846E+02  1.063130471E+02  0.000000000E+00  0.00000E+00  9.000E+00
#rwgt            1          19  -143469.86069413176                3    11903783           0
<weights>
-.11145E+08
-.12027E+08
-.99281E+07
-.14629E+08
-.79553E+07
-.91633E+07
-.13909E+08
-.11170E+08
-.11122E+08
-.10815E+08
-.10801E+08
-.10958E+08
-.11000E+08
-.10831E+08
-.10812E+08
-.11227E+08
-.11217E+08
-.11474E+08
-.11517E+08
-.11505E+08
-.11450E+08
-.11516E+08
-.11533E+08
-.11426E+08
-.11331E+08
-.11291E+08
-.11363E+08
-.11448E+08
-.11382E+08
-.11495E+08
-.11528E+08
-.11188E+08
-.11217E+08
-.11137E+08
-.11180E+08
-.11207E+08
-.11104E+08
-.11147E+08
-.11069E+08
-.11170E+08
-.11124E+08
-.11187E+08
-.11102E+08
-.11518E+08
-.10803E+08
</weights>
</event>
<event>
      7  10001  1.11453E+07  3.51096E+00 -1.00000E+00  2.73918E-01
      21    -1     0     0   502   511  0.000000000E+00  0.000000000E+00  2.074468858E+00  2.074468858E+00  0.000000000E+00  0.00000E+00  9.000E+00
       2    -1     0     0   501     0  0.000000000E+00  0.000000000E+00 -9.531855937E+01  9.531855937E+01  0.000000000E+00  0.00000E+00  9.000E+00
      23     2     1     2     0     0 -6.633483311E-01 -6.814220168E-01 -7.598480184E+01  7.600993862E+01  1.707715353E+00  0.00000E+00  9.000E+00
      11     1     3     3     0     0 -2.585076172E-02  5.138555403E-01 -1.233926523E+01  1.234998714E+01  5.110000000E-04  0.00000E+00  9.000E+00
     -11     1     3     3     0     0 -6.374975694E-01 -1.195277557E+00 -6.364553661E+01  6.365995148E+01  5.110000000E-04  0.00000E+00  9.000E+00
       2     1     1     2   502     0  3.755388261E+00 -9.817427215E-01 -1.744072482E+01  1.786744643E+01  0.000000000E+00  0.00000E+00  9.000E+00
      21     1     1     2   501   511 -3.092039930E+00  1.663164738E+00  1.814361440E-01  3.515643177E+00  5.281510531E-08  0.00000E+00  9.000E+00
#rwgt            1          17   3027320.7602792601                3    11904709           0
<weights>
0.11145E+08
0.12050E+08
0.10188E+08
0.12101E+08
0.98764E+07
0.10915E+08
0.11232E+08
0.11171E+08
0.11120E+08
0.11118E+08
0.11149E+08
0.11181E+08
0.11062E+08
0.11144E+08
0.11147E+08
0.11136E+08
0.11124E+08
0.11041E+08
0.11264E+08
0.11280E+08
0.11029E+08
0.11143E+08
0.11131E+08
0.11258E+08
0.11027E+08
0.11052E+08
0.11190E+08
0.11299E+08
0.10896E+08
0.11154E+08
0.11120E+08
0.11145E+08
0.11141E+08
0.11042E+08
0.11277E+08
0.11129E+08
0.11156E+08
0.11090E+08
0.11210E+08
0.11080E+08
0.11197E+08
0.11212E+08
0.11074E+08
0.11148E+08
0.11138E+08
</weights>
</event>
<event>
      7  10001  1.11453E+07  8.94427E-01 -1.00000E+00  6.07649E-01
       2    -1     0     0   501     0  0.000000000E+00  0.000000000E+00  1.021596019E+00  1.021596019E+00  0.000000000E+00  0.00000E+00  9.000E+00
      21    -1     0     0   502   501  0.000000000E+00  0.000000000E+00 -4.430342964E-01  4.430342964E-01  0.000000000E+00  0.00000E+00  9.000E+00
      23     2     1     2     0     0  1.486505320E-01 -8.182025304E-02  4.784533805E-01  1.145077689E+00  1.026398432E+00  0.00000E+00  9.000E+00
      11     1     3     3     0     0 -1.721812411E-01 -2.010845571E-01 -2.348594428E-01  3.538934838E-01  5.110000000E-04  0.00000E+00  9.000E+00
     -11     1     3     3     0     0  3.208317731E-01  1.192643041E-01  7.133128233E-01  7.911842047E-01  5.110000000E-04  0.00000E+00  9.000E+00
       2     1     1     2   511     0 -3.271890154E-02  1.972473409E-02 -8.458925061E-02  9.281666322E-02  0.000000000E+00  0.00000E+00  9.000E+00
      21     1     1     2   502   511 -1.159316305E-01  6.209551895E-02  1.846975928E-01  2.267359636E-01  6.452392070E-09  0.00000E+00  9.000E+00
#rwgt            2         248   36211482.094358817                3    11917609           0
<weights>
0.11145E+08
0.12071E+08
0.99475E+07
0.14671E+08
0.79705E+07
0.91702E+07
0.13910E+08
0.11190E+08
0.11098E+08
0.10839E+08
0.10838E+08
0.10966E+08
0.11023E+08
0.10860E+08
0.10847E+08
0.11226E+08
0.11195E+08
0.11442E+08
0.11464E+08
0.11457E+08
0.11420E+08
0.11473E+08
0.11495E+08
0.11351E+08
0.11337E+08
0.11289E+08
0.11212E+08
0.11412E+08
0.11346E+08
0.11447E+08
0.11485E+08
0.11177E+08
0.11215E+08
0.11139E+08
0.11174E+08
0.11224E+08
0.11083E+08
0.11101E+08
0.11115E+08
0.11159E+08
0.11134E+08
0.11179E+08
0.11110E+08
0.11481E+08
0.10835E+08
</weights>
</event>
<event>
      7  10001  1.11453E+07  2.10601E+00 -1.00000E+00  3.44635E-01
      21    -1     0     0   502   512  0.000000000E+00  0.000000000E+00  2.359230381E+00  2.359230381E+00  0.000000000E+00  0.00000E+00  9.000E+00
      -4    -1     0     0     0   502  0.000000000E+00  0.000000000E+00 -8.906665379E+00  8.906665379E+00  0.000000000E+00  0.00000E+00  9.000E+00
      23     2     1     2     0     0  3.450781069E-01  7.199251147E-03 -1.646042705E+00  2.414296201E+00  1.732119750E+00  0.00000E+00  9.000E+00
      11     1     3     3     0     0 -3.299243450E-01  1.341977497E-01 -1.688963728E+00  1.726110612E+00  5.110000000E-04  0.00000E+00  9.000E+00
     -11     1     3     3     0     0  6.750024520E-01 -1.269984986E-01  4.292102282E-02  6.881855884E-01  5.110000000E-04  0.00000E+00  9.000E+00
      -4     1     1     2     0   501  1.133928393E+00  1.492067839E+00 -6.132292890E+00  6.412259830E+00  0.000000000E+00  0.00000E+00  9.000E+00
      21     1     1     2   501   512 -1.479006500E+00 -1.499267090E+00  1.230900598E+00  2.439339730E+00  3.942476677E-08  0.00000E+00  9.000E+00
#rwgt            1          12   190693.78790528351                3    11919171           0
<weights>
0.11145E+08
0.16181E+08
0.65821E+07
0.12101E+08
0.95770E+07
0.13983E+08
0.65221E+07
0.11246E+08
0.11038E+08
0.10580E+08
0.10547E+08
0.10824E+08
0.10912E+08
0.10582E+08
0.10561E+08
0.11256E+08
0.11357E+08
0.11745E+08
0.11780E+08
0.11781E+08
0.11697E+08
0.11798E+08
0.11854E+08
0.11466E+08
0.11597E+08
0.11619E+08
0.10969E+08
0.11761E+08
0.11481E+08
0.11768E+08
0.11817E+08
0.11229E+08
0.11260E+08
0.11115E+08
0.11219E+08
0.11334E+08
0.10984E+08
0.11156E+08
0.10913E+08
0.11227E+08
0.11077E+08
0.11184E+08
0.11106E+08
0.11798E+08
0.10552E+08
</weights>
</event>
<event>
      6  10001  1.11453E+07  8.94427E-01 -1.00000E+00  6.02510E-01
      21    -1     0     0   502   501  0.000000000E+00  0.000000000E+00  1.612674223E+01  1.612674223E+01  0.000000000E+00  0.00000E+00  9.000E+00
       5    -1     0     0   501     0  0.000000000E+00  0.000000000E+00 -2.340588193E-01  2.340588193E-01  0.000000000E+00  0.00000E+00  9.000E+00
      23     2     1     2     0     0 -7.619871254E-01  1.427519628E+00  5.892210783E+00  6.230258643E+00  1.216362685E+00  0.00000E+00  9.000E+00
      11     1     3     3     0     0 -1.835065350E-01  1.370323514E+00  3.383270083E+00  3.654856755E+00  5.110000000E-04  0.00000E+00  9.000E+00
     -11     1     3     3     0     0 -5.784805904E-01  5.719611367E-02  2.508940700E+00  2.575401888E+00  5.110000000E-04  0.00000E+00  9.000E+00
       5     1     1     2   502     0  7.619871254E-01 -1.427519628E+00  1.000047263E+01  1.013054241E+01  0.000000000E+00  0.00000E+00  9.000E+00
#rwgt            1          20   112415.10330583522                3    11927713           0
<weights>
0.11145E+08
0.14487E+08
0.77869E+07
0.13113E+08
0.87236E+07
0.12009E+08
0.95526E+07
0.11186E+08
0.11102E+08
0.10781E+08
0.10758E+08
0.10940E+08
0.10983E+08
0.10794E+08
0.10771E+08
0.11238E+08
0.11233E+08
0.11523E+08
0.11548E+08
0.11541E+08
0.11494E+08
0.11566E+08
0.11581E+08
0.11426E+08
0.11366E+08
0.11329E+08
0.11246E+08
0.11498E+08
0.11407E+08
0.11546E+08
0.11578E+08
0.11200E+08
0.11219E+08
0.11132E+08
0.11189E+08
0.11222E+08
0.11089E+08
0.11178E+08
0.11030E+08
0.11182E+08
0.11114E+08
0.11189E+08
0.11100E+08
0.11563E+08
0.10763E+08
</weights>
</event>
<event>
      6  10001 -1.11453E+07  8.94427E-01 -1.00000E+00  1.66192E-01
      21    -1     0     0   502   501  0.000000000E+00  0.000000000E+00  2.504665004E-02  2.504665004E-02  0.000000000E+00  0.00000E+00  9.000E+00
       4    -1     0     0   501     0  0.000000000E+00  0.000000000E+00 -3.538040211E+01  3.538040211E+01  0.000000000E+00  0.00000E+00  9.000E+00
      23     2     1     2     0     0 -3.356904891E-01 -2.742853549E-02 -3.020279889E+01  3.024189575E+01  1.499919211E+00  0.00000E+00  9.000E+00
      11     1     3     3     0     0  5.513743885E-01 -1.990401783E-01 -8.429093250E+00  8.449452289E+00  5.110000000E-04  0.00000E+00  9.000E+00
     -11     1     3     3     0     0 -8.870648777E-01  1.716116428E-01 -2.177370564E+01  2.179244346E+01  5.110000000E-04  0.00000E+00  9.000E+00
       4     1     1     2   502     0  3.356904891E-01  2.742853549E-02 -5.152556572E+00  5.163553007E+00  0.000000000E+00  0.00000E+00  9.000E+00
#rwgt            1          19  -45747287.929557934                3    11929591           0
<weights>
-.11145E+08
-.12999E+08
-.91610E+07
-.15798E+08
-.73403E+07
-.91702E+07
-.13910E+08
-.11243E+08
-.11048E+08
-.10897E+08
-.10986E+08
-.10958E+08
-.11139E+08
-.10968E+08
-.10987E+08
-.11190E+08
-.11131E+08
-.11287E+08
-.11301E+08
-.11295E+08
-.11281E+08
-.11288E+08
-.11333E+08
-.11166E+08
-.11337E+08
-.11303E+08
-.11060E+08
-.11273E+08
-.11172E+08
-.11227E+08
-.11299E+08
-.11095E+08
-.11245E+08
-.11169E+08
-.11123E+08
-.11314E+08
-.10995E+08
-.10782E+08
-.11498E+08
-.11080E+08
-.11207E+08
-.11130E+08
-.11163E+08
-.11343E+08
-.10948E+08
</weights>
</event>
<event>
      6  10001 -1.11453E+07  8.94427E-01 -1.00000E+00  1.42333E-01
       2    -1     0     0   501     0  0.000000000E+00  0.000000000E+00  7.516500196E+01  7.516500196E+01  0.000000000E+00  0.00000E+00  9.000E+00
      21    -1     0     0   502   501  0.000000000E+00  0.000000000E+00 -2.205959007E-02  2.205959007E-02  0.000000000E+00  0.00000E+00  9.000E+00
      23     2     1     2     0     0 -1.708357173E-01 -3.493514308E-01  6.984055411E+01  6.987043175E+01  2.005742271E+00  0.00000E+00  9.000E+00
      11     1     3     3     0     0 -4.551977992E-01 -3.790429492E-01  5.985862561E+00  6.015100120E+00  5.110000000E-04  0.00000E+00  9.000E+00
     -11     1     3     3     0     0  2.843620819E-01  2.969151841E-02  6.385469155E+01  6.385533163E+01  5.110000000E-04  0.00000E+00  9.000E+00
       2     1     1     2   502     0  1.708357173E-01  3.493514308E-01  5.302388253E+00  5.316629802E+00  0.000000000E+00  0.00000E+00  9.000E+00
#rwgt            1          24  -16413900.753053695                3    11930803           0
<weights>
-.11145E+08
-.12599E+08
-.95194E+07
-.15325E+08
-.76279E+07
-.91627E+07
-.13909E+08
-.11172E+08
-.11120E+08
-.10824E+08
-.10814E+08
-.10962E+08
-.11007E+08
-.10842E+08
-.10825E+08
-.11226E+08
-.11211E+08
-.11461E+08
-.11503E+08
-.11491E+08
-.11438E+08
-.11500E+08
-.11520E+08
-.11411E+08
-.11328E+08
-.11287E+08
-.11353E+08
-.11434E+08
-.11371E+08
-.11478E+08
-.11513E+08
-.11183E+08
-.11217E+08
-.11138E+08
-.11177E+08
-.11208E+08
-.11101E+08
-.11131E+08
-.11085E+08
-.11166E+08
-.11128E+08
-.11185E+08
-.11104E+08
-.11505E+08
-.10815E+08
</weights>
</event>
<event>
      6  10001 -1.11453E+07  8.94427E-01 -1.00000E+00  1.56692E-01
       2    -1     0     0   501     0  0.000000000E+00  0.000000000E+00  1.491226744E+02  1.491226744E+02  0.000000000E+00  0.00000E+00  9.000E+00
      21    -1     0     0   502   501  0.000000000E+00  0.000000000E+00 -8.902545776E-03  8.902545776E-03  0.000000000E+00  0.00000E+00  9.000E+00
      23     2     1     2     0     0  2.991161312E-01 -3.529819726E-01  1.121677113E+02  1.121826195E+02  1.769347393E+00  0.00000E+00  9.000E+00
      11     1     3     3     0     0 -4.798012901E-01 -7.854325961E-01  4.923037224E+01  4.923897506E+01  5.110000000E-04  0.00000E+00  9.000E+00
     -11     1     3     3     0     0  7.789174213E-01  4.324506236E-01  6.293733904E+01  6.294364441E+01  5.110000000E-04  0.00000E+00  9.000E+00
       2     1     1     2   502     0 -2.991161312E-01  3.529819726E-01  3.694606057E+01  3.694895747E+01  0.000000000E+00  0.00000E+00  9.000E+00
#rwgt            1          24  -5658805.6171352705                3    11932779           0
<weights>
-.11147E+08
-.12123E+08
-.99653E+07
-.14771E+08
-.79860E+07
-.91487E+07
-.13909E+08
-.11176E+08
-.11117E+08
-.10830E+08
-.10822E+08
-.10965E+08
-.11012E+08
-.10848E+08
-.10832E+08
-.11227E+08
-.11208E+08
-.11457E+08
-.11495E+08
-.11484E+08
-.11433E+08
-.11494E+08
-.11514E+08
-.11399E+08
-.11330E+08
-.11287E+08
-.11327E+08
-.11429E+08
-.11366E+08
-.11471E+08
-.11506E+08
-.11183E+08
-.11218E+08
-.11139E+08
-.11178E+08
-.11213E+08
-.11099E+08
-.11124E+08
-.11095E+08
-.11165E+08
-.11131E+08
-.11185E+08
-.11106E+08
-.11499E+08
-.10822E+08
</weights>
</event>
<event>
      7  10001  1.11453E+07  3.01027E+01 -1.00000E+00  1.52853E-01
      -2    -1     0     0     0   502  0.000000000E+00  0.000000000E+00  7.825171236E+00  7.825171236E+00  0.000000000E+00  0.00000E+00  9.000E+00
      21    -1     0     0   502   501  0.000000000E+00  0.000000000E+00 -3.381521429E+01  3.381521429E+01  0.000000000E+00  0.00000E+00  9.000E+00
      23     2     1     2     0     0  6.800007484E-01 -2.055273768E+00  7.134382631E+00  8.189739031E+00  3.389079314E+00  0.00000E+00  9.000E+00
      11     1     3     3     0     0  8.292931225E-01  1.566455807E-01  1.439017376E-01  8.561383604E-01  5.110000000E-04  0.00000E+00  9.000E+00
     -11     1     3     3     0     0 -1.492923741E-01 -2.211919349E+00  6.990480893E+00  7.333600671E+00  5.110000000E-04  0.00000E+00  9.000E+00
      -2     1     1     2     0   511  9.209521865E-02 -2.088852567E-01  1.141195157E-02  2.285712414E-01  0.000000000E+00  0.00000E+00  9.000E+00
      21     1     1     2   511   501 -7.720959671E-01  2.264159025E+00 -3.313583763E+01  3.322207525E+01  8.259061849E-07  0.00000E+00  9.000E+00
#rwgt            2         101   514662.91528974130                3    11935427           0
<weights>
0.11145E+08
0.10001E+08
0.12397E+08
0.12155E+08
0.99332E+07
0.91702E+07
0.13910E+08
0.11216E+08
0.11074E+08
0.10960E+08
0.11021E+08
0.11008E+08
0.11132E+08
0.11008E+08
0.11023E+08
0.11192E+08
0.11119E+08
0.11261E+08
0.11262E+08
0.11257E+08
0.11254E+08
0.11258E+08
0.11295E+08
0.11155E+08
0.11300E+08
0.11258E+08
0.11068E+08
0.11234E+08
0.11178E+08
0.11214E+08
0.11268E+08
0.11112E+08
0.11216E+08
0.11156E+08
0.11137E+08
0.11266E+08
0.11037E+08
0.10891E+08
0.11379E+08
0.11098E+08
0.11189E+08
0.11143E+08
0.11148E+08
0.11297E+08
0.10995E+08
</weights>
</event>
<event>
      6  10001 -1.11453E+07  8.94427E-01 -1.00000E+00  1.64782E-01
      -2    -1     0     0     0   502  0.000000000E+00  0.000000000E+00  4.729282600E+01  4.729282600E+01  0.000000000E+00  0.00000E+00  9.000E+00
      21    -1     0     0   502   501  0.000000000E+00  0.000000000E+00 -1.342017705E-02  1.342017705E-02  0.000000000E+00  0.00000E+00  9.000E+00
      23     2     1     2     0     0  3.285494632E-02 -3.353742812E-01  3.989057809E+01  3.990973818E+01  1.189716560E+00  0.00000E+00  9.000E+00
      11     1     3     3     0     0 -1.575148148E-01 -6.758781265E-01  3.354624834E+01  3.355342606E+01  5.110000000E-04  0.00000E+00  9.000E+00
     -11     1     3     3     0     0  1.903697611E-01  3.405038453E-01  6.344329747E+00  6.356312116E+00  5.110000000E-04  0.00000E+00  9.000E+00
      -2     1     1     2     0   501 -3.285494632E-02  3.353742812E-01  7.388827734E+00  7.396508004E+00  0.000000000E+00  0.00000E+00  9.000E+00
#rwgt            1           7  -3476686.8567177565                3    11938775           0
<weights>
-.11144E+08
-.12527E+08
-.95811E+07
-.15234E+08
-.76772E+07
-.91636E+07
-.13907E+08
-.11169E+08
-.11121E+08
-.10821E+08
-.10810E+08
-.10960E+08
-.11003E+08
-.10838E+08
-.10821E+08
-.11224E+08
-.11211E+08
-.11462E+08
-.11506E+08
-.11493E+08
-.11439E+08
-.11502E+08
-.11521E+08
-.11415E+08
-.11327E+08
-.11286E+08
-.11363E+08
-.11435E+08
-.11372E+08
-.11480E+08
-.11515E+08
-.11183E+08
-.11216E+08
-.11136E+08
-.11177E+08
-.11206E+08
-.11101E+08
-.11133E+08
-.11080E+08
-.11166E+08
-.11126E+08
-.11184E+08
-.11102E+08
-.11506E+08
-.10811E+08
</weights>
</event>
<event>
      6  10001 -1.11453E+07  8.94427E-01 -1.00000E+00  5.43626E-01
       2    -1     0     0   501     0  0.000000000E+00  0.000000000E+00  2.080330859E-02  2.080330859E-02  0.000000000E+00  0.00000E+00  9.000E+00
      21    -1     0     0   502   501  0.000000000E+00  0.000000000E+00 -5.622144765E+01  5.622144765E+01  0.000000000E+00  0.00000E+00  9.000E+00
      23     2     1     2     0     0 -4.989083566E-01  4.892255627E-01 -3.154672480E+01  3.157843130E+01  1.230132844E+00  0.00000E+00  9.000E+00
      11     1     3     3     0     0  1.381730359E-01  4.001083967E-01 -2.417126583E+01  2.417497198E+01  5.110000000E-04  0.00000E+00  9.000E+00
     -11     1     3     3     0     0 -6.370813925E-01  8.911716601E-02 -7.375458971E+00  7.403459317E+00  5.110000000E-04  0.00000E+00  9.000E+00
       2     1     1     2   502     0  4.989083566E-01 -4.892255627E-01 -2.465391955E+01  2.466381966E+01  0.000000000E+00  0.00000E+00  9.000E+00
#rwgt            1          24  -897966.99744116538                3    11940651           0
<weights>
-.11145E+08
-.12571E+08
-.94975E+07
-.15278E+08
-.76099E+07
-.91702E+07
-.13910E+08
-.11207E+08
-.11084E+08
-.11020E+08
-.11087E+08
-.11027E+08
-.11177E+08
-.11079E+08
-.11091E+08
-.11179E+08
-.11090E+08
-.11193E+08
-.11172E+08
-.11166E+08
-.11193E+08
-.11183E+08
-.11196E+08
-.11123E+08
-.11237E+08
-.11212E+08
-.11084E+08
-.11170E+08
-.11127E+08
-.11139E+08
-.11187E+08
-.11099E+08
-.11206E+08
-.11159E+08
-.11129E+08
-.11259E+08
-.11042E+08
-.10873E+08
-.11442E+08
-.11076E+08
-.11209E+08
-.11130E+08
-.11162E+08
-.11222E+08
-.11060E+08
</weights>
</event>
<event>
      6  10001 -1.11453E+07  8.94427E-01 -1.00000E+00  4.27756E-01
      21    -1     0     0   502   501  0.000000000E+00  0.000000000E+00  1.385286285E-01  1.385286285E-01  0.000000000E+00  0.00000E+00  9.000E+00
      -4    -1     0     0     0   502  0.000000000E+00  0.000000000E+00 -4.507474308E+00  4.507474308E+00  0.000000000E+00  0.00000E+00  9.000E+00
      23     2     1     2     0     0 -2.159124513E-01  2.095224056E-01 -3.530476702E+00  3.755189796E+00  1.243650608E+00  0.00000E+00  9.000E+00
      11     1     3     3     0     0  4.164037987E-01  9.001887695E-02 -2.530064329E+00  2.565681447E+00  5.110000000E-04  0.00000E+00  9.000E+00
     -11     1     3     3     0     0 -6.323162501E-01  1.195035287E-01 -1.000412374E+00  1.189508349E+00  5.110000000E-04  0.00000E+00  9.000E+00
      -4     1     1     2     0   501  2.159124513E-01 -2.095224056E-01 -8.384689771E-01  8.908131401E-01  0.000000000E+00  0.00000E+00  9.000E+00
#rwgt            1          12  -1664795.1377165217                3    11942648           0
<weights>
-.11145E+08
-.10888E+08
-.10827E+08
-.16391E+08
-.70240E+07
-.72384E+07
-.16875E+08
-.11214E+08
-.11075E+08
-.10905E+08
-.10942E+08
-.10986E+08
-.11088E+08
-.10941E+08
-.10947E+08
-.11207E+08
-.11153E+08
-.11340E+08
-.11349E+08
-.11346E+08
-.11326E+08
-.11348E+08
-.11388E+08
-.11218E+08
-.11334E+08
-.11288E+08
-.11078E+08
-.11313E+08
-.11243E+08
-.11311E+08
-.11360E+08
-.11138E+08
-.11216E+08
-.11147E+08
-.11153E+08
-.11259E+08
-.11045E+08
-.10962E+08
-.11264E+08
-.11123E+08
-.11166E+08
-.11156E+08
-.11134E+08
-.11377E+08
-.10925E+08
</weights>
</event>
<event>
      6  10001 -1.11453E+07  8.94427E-01 -1.00000E+00  4.55225E-01
      21    -1     0     0   502   501  0.000000000E+00  0.000000000E+00  2.916582230E-03  2.916582230E-03  0.000000000E+00  0.00000E+00  9.000E+00
       2    -1     0     0   501     0  0.000000000E+00  0.000000000E+00 -4.970472388E+02  4.970472388E+02  0.000000000E+00  0.00000E+00  9.000E+00
      23     2     1     2     0     0  5.106488597E-01 -2.413840719E-01 -1.782662307E+02  1.782715635E+02  1.257897553E+00  0.00000E+00  9.000E+00
      11     1     3     3     0     0 -1.364424809E-01  2.465682028E-01 -1.123123494E+02  1.123127029E+02  5.110000000E-04  0.00000E+00  9.000E+00
     -11     1     3     3     0     0  6.470913406E-01 -4.879522747E-01 -6.595388137E+01  6.595886060E+01  5.110000000E-04  0.00000E+00  9.000E+00
       2     1     1     2   502     0 -5.106488597E-01  2.413840719E-01 -3.187780915E+02  3.187785919E+02  0.000000000E+00  0.00000E+00  9.000E+00
#rwgt            1          17  -25600395.733072542                3    11948294           0
<weights>
-.11145E+08
-.11179E+08
-.11064E+08
-.13586E+08
-.88649E+07
-.91702E+07
-.13910E+08
-.11130E+08
-.11160E+08
-.11165E+08
-.11151E+08
-.10985E+08
-.11327E+08
-.11157E+08
-.11153E+08
-.11284E+08
-.10935E+08
-.11472E+08
-.10681E+08
-.10616E+08
-.11510E+08
-.11108E+08
-.11171E+08
-.11043E+08
-.11208E+08
-.11344E+08
-.11020E+08
-.10747E+08
-.11581E+08
-.11067E+08
-.11189E+08
-.11024E+08
-.11264E+08
-.11516E+08
-.10689E+08
-.11097E+08
-.11189E+08
-.11147E+08
-.11150E+08
-.11254E+08
-.11047E+08
-.11134E+08
-.11157E+08
-.11132E+08
-.11158E+08
</weights>
</event>
<event>
      6  10001 -1.11453E+07  8.94427E-01 -1.00000E+00  1.62600E-01
       2    -1     0     0   501     0  0.000000000E+00  0.000000000E+00  6.019477426E+01  6.019477426E+01  0.000000000E+00  0.00000E+00  9.000E+00
      21    -1     0     0   502   501  0.000000000E+00  0.000000000E+00 -1.294202421E-02  1.294202421E-02  0.000000000E+00  0.00000E+00  9.000E+00
      23     2     1     2     0     0  3.382119547E-02  2.503233317E-01  5.729022811E+01  5.730510021E+01  1.280807457E+00  0.00000E+00  9.000E+00
      11     1     3     3     0     0  2.799532530E-02  7.694651549E-01  2.964590115E+01  2.965589849E+01  5.110000000E-04  0.00000E+00  9.000E+00
     -11     1     3     3     0     0  5.825870166E-03 -5.191418232E-01  2.764432696E+01  2.764920172E+01  5.110000000E-04  0.00000E+00  9.000E+00
       2     1     1     2   502     0 -3.382119547E-02 -2.503233317E-01  2.891604126E+00  2.902616072E+00  0.000000000E+00  0.00000E+00  9.000E+00
#rwgt            1          24  -2337536.8193254778                3    11948793           0
<weights>
-.11145E+08
-.11601E+08
-.10691E+08
-.14091E+08
-.85655E+07
-.91767E+07
-.13910E+08
-.11194E+08
-.11097E+08
-.10874E+08
-.10894E+08
-.10983E+08
-.11048E+08
-.10903E+08
-.10900E+08
-.11218E+08
-.11166E+08
-.11384E+08
-.11411E+08
-.11403E+08
-.11366E+08
-.11406E+08
-.11438E+08
-.11304E+08
-.11320E+08
-.11257E+08
-.11226E+08
-.11348E+08
-.11305E+08
-.11375E+08
-.11419E+08
-.11156E+08
-.11216E+08
-.11147E+08
-.11160E+08
-.11226E+08
-.11080E+08
-.11032E+08
-.11198E+08
-.11140E+08
-.11150E+08
-.11174E+08
-.11116E+08
-.11426E+08
-.10883E+08
</weights>
</event>
<event>
      6  10001 -1.11453E+07  8.94427E-01 -1.00000E+00  2.88391E-01
      21    -1     0     0   502   501  0.000000000E+00  0.000000000E+00  1.943405941E-02  1.943405941E-02  0.000000000E+00  0.00000E+00  9.000E+00
       2    -1     0     0   501     0  0.000000000E+00  0.000000000E+00 -2.835930619E+02  2.835930619E+02  0.000000000E+00  0.00000E+00  9.000E+00
      23     2     1     2     0     0 -2.759704988E-01  1.354402281E-01 -2.822881070E+02  2.822907291E+02  1.177235771E+00  0.00000E+00  9.000E+00
      11     1     3     3     0     0 -3.195796380E-01  7.027266333E-02 -2.810249700E+02  2.810251605E+02  5.110000000E-04  0.00000E+00  9.000E+00
     -11     1     3     3     0     0  4.360913915E-02  6.516756476E-02 -1.263136929E+00  1.265568540E+00  5.110000000E-04  0.00000E+00  9.000E+00
       2     1     1     2   502     0  2.759704988E-01 -1.354402281E-01 -1.285520828E+00  1.321766837E+00  0.000000000E+00  0.00000E+00  9.000E+00
#rwgt            1          17  -117850311.93386970                3    11951822           0
<weights>
-.11145E+08
-.11649E+08
-.10498E+08
-.14158E+08
-.84113E+07
-.91702E+07
-.13910E+08
-.11127E+08
-.11162E+08
-.11171E+08
-.11162E+08
-.11057E+08
-.11252E+08
-.11165E+08
-.11163E+08
-.11333E+08
-.10860E+08
-.11327E+08
-.10847E+08
-.10811E+08
-.11346E+08
-.11104E+08
-.11154E+08
-.11134E+08
-.11107E+08
-.11198E+08
-.11104E+08
-.10926E+08
-.11343E+08
-.11090E+08
-.11157E+08
-.11035E+08
-.11250E+08
-.11329E+08
-.10908E+08
-.11127E+08
-.11160E+08
-.11167E+08
-.11124E+08
-.11196E+08
-.11098E+08
-.11152E+08
-.11137E+08
-.11122E+08
-.11167E+08
</weights>
</event>
<event>
      6  10001  1.11453E+07  8.94427E-01 -1.00000E+00  5.81608E-01
      -2    -1     0     0     0   502  0.000000000E+00  0.000000000E+00  2.503107365E+00  2.503107365E+00  0.000000000E+00  0.00000E+00  9.000E+00
       2    -1     0     0   501     0  0.000000000E+00  0.000000000E+00 -7.317570723E-01  7.317570723E-01  0.000000000E+00  0.00000E+00  9.000E+00
      23     2     1     2     0     0  1.086294144E-01 -2.413144854E-01 -3.378163271E-01  1.109160587E+00  1.022782629E+00  0.00000E+00  9.000E+00
      11     1     3     3     0     0  2.376050355E-01 -1.717859139E-01 -6.780443962E-01  7.387225578E-01  5.110000000E-04  0.00000E+00  9.000E+00
     -11     1     3     3     0     0 -1.289756211E-01 -6.952857150E-02  3.402280690E-01  3.704380288E-01  5.110000000E-04  0.00000E+00  9.000E+00
      21     1     1     2   501   502 -1.086294144E-01  2.413144854E-01  2.109166620E+00  2.125703851E+00  2.980232239E-08  0.00000E+00  9.000E+00
#rwgt            1           8   451182.75182857388                3    11953680           0
<weights>
0.11145E+08
0.12728E+08
0.96552E+07
0.11814E+08
0.98437E+07
0.11499E+08
0.10336E+08
0.10897E+08
0.11428E+08
0.10808E+08
0.10751E+08
0.10987E+08
0.10924E+08
0.10809E+08
0.10768E+08
0.11147E+08
0.11368E+08
0.11528E+08
0.11531E+08
0.11513E+08
0.11506E+08
0.11577E+08
0.11555E+08
0.11489E+08
0.11291E+08
0.11390E+08
0.11144E+08
0.11565E+08
0.11309E+08
0.11575E+08
0.11561E+08
0.11163E+08
0.11259E+08
0.11130E+08
0.11203E+08
0.10932E+08
0.11402E+08
0.11228E+08
0.10990E+08
0.11177E+08
0.11114E+08
0.11239E+08
0.11046E+08
0.11553E+08
0.10775E+08
</weights>
</event>
<event>
      6  10001  1.11453E+07  8.94427E-01 -1.00000E+00  5.79956E-01
       4    -1     0     0   501     0  0.000000000E+00  0.000000000E+00  7.131913986E+00  7.131913986E+00  0.000000000E+00  0.00000E+00  9.000E+00
      -4    -1     0     0     0   502  0.000000000E+00  0.000000000E+00 -1.966188662E-01  1.966188662E-01  0.000000000E+00  0.00000E+00  9.000E+00
      23     2     1     2     0     0  4.217509630E-01 -8.708353384E-02  6.777191520E+00  6.869780016E+00  1.038313608E+00  0.00000E+00  9.000E+00
      11     1     3     3     0     0  7.587476887E-01 -1.099454981E-01  4.068115623E+00  4.139728379E+00  5.110000000E-04  0.00000E+00  9.000E+00
     -11     1     3     3     0     0 -3.369967258E-01  2.286196422E-02  2.709075897E+00  2.730051637E+00  5.110000000E-04  0.00000E+00  9.000E+00
      21     1     1     2   501   502 -4.217509630E-01  8.708353384E-02  1.581035997E-01  4.587528364E-01  2.574226812E-08  0.00000E+00  9.000E+00
#rwgt            1          27   215521.00532600580                3    11955586           0
<weights>
0.11145E+08
0.13396E+08
0.90046E+07
0.11618E+08
0.96607E+07
0.12025E+08
0.95275E+07
0.11170E+08
0.11118E+08
0.10757E+08
0.10717E+08
0.10931E+08
0.10959E+08
0.10763E+08
0.10732E+08
0.11241E+08
0.11255E+08
0.11562E+08
0.11597E+08
0.11586E+08
0.11530E+08
0.11616E+08
0.11621E+08
0.11491E+08
0.11363E+08
0.11335E+08
0.11332E+08
0.11541E+08
0.11445E+08
0.11602E+08
0.11627E+08
0.11216E+08
0.11219E+08
0.11127E+08
0.11198E+08
0.11207E+08
0.11106E+08
0.11243E+08
0.10969E+08
0.11196E+08
0.11102E+08
0.11196E+08
0.11092E+08
0.11604E+08
0.10728E+08
</weights>
</event>
<event>
      7  10001  1.11453E+07  1.67547E+00 -1.00000E+00  3.90334E-01
      21    -1     0     0   502   501  0.000000000E+00  0.000000000E+00  9.299028371E-02  9.299028371E-02  0.000000000E+00  0.00000E+00  9.000E+00
      21    -1     0     0   511   502  0.000000000E+00  0.000000000E+00 -1.553583240E+02  1.553583240E+02  0.000000000E+00  0.00000E+00  9.000E+00
      23     2     1     2     0     0 -6.858019429E-01  1.502104932E+00 -3.119365337E+01  3.127893600E+01  1.612818437E+00  0.00000E+00  9.000E+00
      11     1     3     3     0     0 -6.039403474E-01  1.162626193E+00 -1.038004081E+01  1.046239413E+01  5.110000000E-04  0.00000E+00  9.000E+00
     -11     1     3     3     0     0 -8.186159555E-02  3.394787387E-01 -2.081361256E+01  2.081654187E+01  5.110000000E-04  0.00000E+00  9.000E+00
      -4     1     1     2     0   501  1.294003379E+00  5.908246783E-02 -9.440561199E+00  9.529015229E+00  0.000000000E+00  0.00000E+00  9.000E+00
       4     1     1     2   511     0 -6.082014362E-01 -1.561187400E+00 -1.146311191E+02  1.146433630E+02  0.000000000E+00  0.00000E+00  9.000E+00
#rwgt            1          12   416703.42618322559                3    11957052           0
<weights>
0.11145E+08
0.15062E+08
0.74260E+07
0.13229E+08
0.88877E+07
0.12425E+08
0.89136E+07
0.11329E+08
0.10964E+08
0.10620E+08
0.10772E+08
0.10827E+08
0.11032E+08
0.10722E+08
0.10762E+08
0.11221E+08
0.11208E+08
0.11494E+08
0.11578E+08
0.11570E+08
0.11475E+08
0.11515E+08
0.11631E+08
0.11240E+08
0.11581E+08
0.11511E+08
0.10991E+08
0.11485E+08
0.11271E+08
0.11411E+08
0.11540E+08
0.11076E+08
0.11338E+08
0.11194E+08
0.11107E+08
0.11434E+08
0.10891E+08
0.10569E+08
0.11649E+08
0.11101E+08
0.11188E+08
0.11142E+08
0.11150E+08
0.11606E+08
0.10703E+08
</weights>
</event>
<event>
      7  10001  1.11453E+07  1.43799E+00 -1.00000E+00  4.39665E-01
      -2    -1     0     0     0   502  0.000000000E+00  0.000000000E+00  4.024955971E-02  4.024955971E-02  0.000000000E+00  0.00000E+00  9.000E+00
       2    -1     0     0   501     0  0.000000000E+00  0.000000000E+00 -2.505568923E+02  2.505568923E+02  0.000000000E+00  0.00000E+00  9.000E+00
      23     2     1     2     0     0 -5.535129244E-01  1.698195144E+00 -8.579564718E+01  8.586624095E+01  2.987978748E+00  0.00000E+00  9.000E+00
      11     1     3     3     0     0  3.668061232E-01  4.036328493E-01 -2.655907636E+00  2.711330271E+00  5.110000000E-04  0.00000E+00  9.000E+00
     -11     1     3     3     0     0 -9.203190476E-01  1.294562294E+00 -8.313973954E+01  8.315491068E+01  5.110000000E-04  0.00000E+00  9.000E+00
      21     1     1     2   501   511 -2.988505063E-02 -5.259444263E-02 -5.672289179E+00  5.672611728E+00  0.000000000E+00  0.00000E+00  9.000E+00
      21     1     1     2   511   502  5.833979751E-01 -1.645600701E+00 -1.590487064E+02  1.590582892E+02  2.697398305E-06  0.00000E+00  9.000E+00
#rwgt            1           8   916718.28640787315                3    11967009           0
<weights>
0.11145E+08
0.11727E+08
0.10592E+08
0.11436E+08
0.10466E+08
0.11131E+08
0.10900E+08
0.11132E+08
0.11157E+08
0.11161E+08
0.11164E+08
0.11110E+08
0.11183E+08
0.11163E+08
0.11163E+08
0.11343E+08
0.10840E+08
0.11221E+08
0.10986E+08
0.10972E+08
0.11226E+08
0.11110E+08
0.11148E+08
0.11200E+08
0.11044E+08
0.11102E+08
0.11160E+08
0.11067E+08
0.11165E+08
0.11112E+08
0.11141E+08
0.11051E+08
0.11232E+08
0.11195E+08
0.11067E+08
0.11151E+08
0.11136E+08
0.11167E+08
0.11122E+08
0.11153E+08
0.11134E+08
0.11172E+08
0.11116E+08
0.11125E+08
0.11164E+08
</weights>
</event>
<event>
      6  10001 -1.11453E+07  8.94427E-01 -1.00000E+00  3.61389E-01
      21    -1     0     0   502   501  0.000000000E+00  0.000000000E+00  3.530235682E-03  3.530235682E-03  0.000000000E+00  0.00000E+00  9.000E+00
       2    -1     0     0   501     0  0.000000000E+00  0.000000000E+00 -5.582043100E+02  5.582043100E+02  0.000000000E+00  0.00000E+00  9.000E+00
      23     2     1     2     0     0 -4.860455347E-01  8.594811804E-01 -4.391848510E+02  4.391878156E+02  1.276376227E+00  0.00000E+00  9.000E+00
      11     1     3     3     0     0  3.161676373E-01 -1.678146323E-02 -1.758303449E+02  1.758306300E+02  5.110000000E-04  0.00000E+00  9.000E+00
     -11     1     3     3     0     0 -8.022131720E-01  8.762626437E-01 -2.633545060E+02  2.633571856E+02  5.110000000E-04  0.00000E+00  9.000E+00
       2     1     1     2   502     0  4.860455347E-01 -8.594811804E-01 -1.190159288E+02  1.190200246E+02  0.000000000E+00  0.00000E+00  9.000E+00
#rwgt            1          17  -69289845.570420444                3    11969609           0
<weights>
-.11145E+08
-.13006E+08
-.88787E+07
-.15807E+08
-.71141E+07
-.91702E+07
-.13910E+08
-.11131E+08
-.11159E+08
-.11164E+08
-.11147E+08
-.10964E+08
-.11350E+08
-.11155E+08
-.11150E+08
-.11222E+08
-.11023E+08
-.11511E+08
-.10635E+08
-.10561E+08
-.11556E+08
-.11111E+08
-.11172E+08
-.11010E+08
-.11245E+08
-.11406E+08
-.10984E+08
-.10689E+08
-.11659E+08
-.11061E+08
-.11197E+08
-.11041E+08
-.11247E+08
-.11584E+08
-.10614E+08
-.11085E+08
-.11201E+08
-.11139E+08
-.11160E+08
-.11274E+08
-.11030E+08
-.11129E+08
-.11162E+08
-.11135E+08
-.11156E+08
</weights>
</event>
<event>
      7  10001  1.11453E+07  9.02487E-01 -1.00000E+00  6.03879E-01
       2    -1     0     0   501     0  0.000000000E+00  0.000000000E+00  4.382554440E+00  4.382554440E+00  0.000000000E+00  0.00000E+00  9.000E+00
      21    -1     0     0   502   501  0.000000000E+00  0.000000000E+00 -8.005042269E+00  8.005042269E+00  0.000000000E+00  0.00000E+00  9.000E+00
      23     2     1     2     0     0 -3.734814254E-01  5.955195867E-03  4.128106530E+00  4.595792565E+00  1.985074794E+00  0.00000E+00  9.000E+00
      11     1     3     3     0     0 -9.067076289E-01  6.993779452E-01  2.320387813E+00  2.587556395E+00  5.110000000E-04  0.00000E+00  9.000E+00
     -11     1     3     3     0     0  5.332262035E-01 -6.934227493E-01  1.807718717E+00  2.008236170E+00  5.110000000E-04  0.00000E+00  9.000E+00
       2     1     1     2   511     0  4.417530538E-01 -1.681292345E-01 -2.920179921E+00  2.958185925E+00  0.000000000E+00  0.00000E+00  9.000E+00
      21     1     1     2   502   511 -6.827162839E-02  1.621740386E-01 -4.830414439E+00  4.833618218E+00  5.654593098E-07  0.00000E+00  9.000E+00
#rwgt            2         248   3181788.6981888576                3    11970897           0
<weights>
0.11145E+08
0.10709E+08
0.11437E+08
0.13015E+08
0.91640E+07
0.91702E+07
0.13910E+08
0.11209E+08
0.11079E+08
0.10892E+08
0.10917E+08
0.10984E+08
0.11070E+08
0.10922E+08
0.10923E+08
0.11214E+08
0.11162E+08
0.11368E+08
0.11373E+08
0.11370E+08
0.11350E+08
0.11380E+08
0.11414E+08
0.11242E+08
0.11338E+08
0.11289E+08
0.11086E+08
0.11338E+08
0.11270E+08
0.11346E+08
0.11392E+08
0.11151E+08
0.11213E+08
0.11143E+08
0.11160E+08
0.11249E+08
0.11055E+08
0.11005E+08
0.11212E+08
0.11134E+08
0.11156E+08
0.11163E+08
0.11127E+08
0.11402E+08
0.10905E+08
</weights>
</event>
<event>
      6  10001 -1.11453E+07  8.94427E-01 -1.00000E+00  2.02127E-01
      -4    -1     0     0     0   502  0.000000000E+00  0.000000000E+00  7.385746890E-03  7.385746890E-03  0.000000000E+00  0.00000E+00  9.000E+00
       4    -1     0     0   501     0  0.000000000E+00  0.000000000E+00 -1.523616356E+02  1.523616356E+02  0.000000000E+00  0.00000E+00  9.000E+00
      23     2     1     2     0     0 -4.745342194E-01  2.461769564E-01 -9.845323613E+01  9.846535666E+01  1.449473272E+00  0.00000E+00  9.000E+00
      11     1     3     3     0     0  1.402648176E-01  3.871349421E-01 -8.551255131E+00  8.561163020E+00  5.110000000E-04  0.00000E+00  9.000E+00
     -11     1     3     3     0     0 -6.147990370E-01 -1.409579857E-01 -8.990198100E+01  8.990419364E+01  5.110000000E-04  0.00000E+00  9.000E+00
      21     1     1     2   501   502  4.745342194E-01 -2.461769564E-01 -5.390101376E+01  5.390366472E+01  6.743495762E-07  0.00000E+00  9.000E+00
#rwgt            1           4  -81135.873584267873                3    11971148           0
<weights>
-.11145E+08
-.13202E+08
-.89195E+07
-.16046E+08
-.71467E+07
-.91702E+07
-.13910E+08
-.11057E+08
-.11229E+08
-.11446E+08
-.11352E+08
-.11107E+08
-.11478E+08
-.11444E+08
-.11412E+08
-.11105E+08
-.11029E+08
-.10892E+08
-.10788E+08
-.10788E+08
-.10914E+08
-.10866E+08
-.10760E+08
-.11106E+08
-.10787E+08
-.10897E+08
-.11236E+08
-.10929E+08
-.10949E+08
-.10890E+08
-.10843E+08
-.11160E+08
-.11039E+08
-.11108E+08
-.11173E+08
-.11113E+08
-.11166E+08
-.11195E+08
-.11150E+08
-.10960E+08
-.11319E+08
-.11043E+08
-.11255E+08
-.10848E+08
-.11408E+08
</weights>
</event>
<event>
      6  10001  1.11453E+07  8.94427E-01 -1.00000E+00  5.89933E-01
      -2    -1     0     0     0   502  0.000000000E+00  0.000000000E+00  9.900858853E-02  9.900858853E-02  0.000000000E+00  0.00000E+00  9.000E+00
      21    -1     0     0   502   501  0.000000000E+00  0.000000000E+00 -9.517295168E+00  9.517295168E+00  0.000000000E+00  0.00000E+00  9.000E+00
      23     2     1     2     0     0 -1.194045632E-02  2.858486074E-01 -2.888367398E+00  3.080120121E+00  1.030835454E+00  0.00000E+00  9.000E+00
      11     1     3     3     0     0  2.493642208E-01  5.278214900E-01 -9.954509890E-01  1.153993489E+00  5.110000000E-04  0.00000E+00  9.000E+00
     -11     1     3     3     0     0 -2.613046771E-01 -2.419728826E-01 -1.892916409E+00  1.926126632E+00  5.110000000E-04  0.00000E+00  9.000E+00
      -2     1     1     2     0   501  1.194045632E-02 -2.858486074E-01 -6.529919182E+00  6.536183636E+00  0.000000000E+00  0.00000E+00  9.000E+00
#rwgt            1           7   369698.79607642570                3    11973828           0
<weights>
0.11145E+08
0.16682E+08
0.58797E+07
0.10123E+08
0.10849E+08
0.15793E+08
0.37426E+07
0.11323E+08
0.10952E+08
0.10020E+08
0.99460E+07
0.10579E+08
0.10581E+08
0.10007E+08
0.99620E+07
0.11394E+08
0.11552E+08
0.12350E+08
0.12458E+08
0.12459E+08
0.12251E+08
0.12470E+08
0.12597E+08
0.11836E+08
0.12017E+08
0.11954E+08
0.10955E+08
0.12332E+08
0.11918E+08
0.12424E+08
0.12516E+08
0.11337E+08
0.11357E+08
0.11095E+08
0.11284E+08
0.11426E+08
0.10916E+08
0.11266E+08
0.10557E+08
0.11358E+08
0.10960E+08
0.11275E+08
0.11010E+08
0.12459E+08
0.99565E+07
</weights>
</event>
<event>
      7  10001  1.11453E+07  8.94427E-01 -1.00000E+00  6.07649E-01
       2    -1     0     0   501     0  0.000000000E+00  0.000000000E+00  6.377196003E+01  6.377196003E+01  0.000000000E+00  0.00000E+00  9.000E+00
      21    -1     0     0   511   502  0.000000000E+00  0.000000000E+00 -8.487432693E-02  8.487432693E-02  0.000000000E+00  0.00000E+00  9.000E+00
      23     2     1     2     0     0  1.467625034E-01  2.619914495E-01  6.320169871E+01  6.321451199E+01  1.236780872E+00  0.00000E+00  9.000E+00
      11     1     3     3     0     0  5.215239134E-01 -2.172195220E-01  1.836825246E+01  1.837693854E+01  5.110000000E-04  0.00000E+00  9.000E+00
     -11     1     3     3     0     0 -3.747614100E-01  4.792109715E-01  4.483344626E+01  4.483757345E+01  5.110000000E-04  0.00000E+00  9.000E+00
      21     1     1     2   501   502 -2.248632869E-01 -2.309355696E-01  3.070309738E-01  4.451547528E-01  4.607929616E-08  0.00000E+00  9.000E+00
       2     1     1     2   511     0  7.810078349E-02 -3.105587982E-02  1.783560109E-01  1.971676106E-01  0.000000000E+00  0.00000E+00  9.000E+00
#rwgt            2         249   1330088.1790816037                3    12014525           0
<weights>
0.11145E+08
0.11308E+08
0.10724E+08
0.13743E+08
0.85924E+07
0.91702E+07
0.13910E+08
0.11176E+08
0.11114E+08
0.10822E+08
0.10811E+08
0.10961E+08
0.11006E+08
0.10839E+08
0.10822E+08
0.11227E+08
0.11210E+08
0.11465E+08
0.11502E+08
0.11491E+08
0.11441E+08
0.11504E+08
0.11523E+08
0.11404E+08
0.11332E+08
0.11290E+08
0.11315E+08
0.11437E+08
0.11372E+08
0.11481E+08
0.11516E+08
0.11184E+08
0.11217E+08
0.11137E+08
0.11178E+08
0.11211E+08
0.11098E+08
0.11134E+08
0.11082E+08
0.11167E+08
0.11127E+08
0.11185E+08
0.11104E+08
0.11508E+08
0.10812E+08
</weights>
</event>
<event>
      6  10001 -1.11453E+07  8.94427E-01 -1.00000E+00  5.74923E-01
      -2    -1     0     0     0   502  0.000000000E+00  0.000000000E+00  7.013808848E+01  7.013808848E+01  0.000000000E+00  0.00000E+00  9.000E+00
      21    -1     0     0   502   501  0.000000000E+00  0.000000000E+00 -1.580774439E-02  1.580774439E-02  0.000000000E+00  0.00000E+00  9.000E+00
      23     2     1     2     0     0 -3.530642362E-01 -7.387454366E-02  6.585335305E+01  6.586975625E+01  1.424979880E+00  0.00000E+00  9.000E+00
      11     1     3     3     0     0 -2.285269560E-01 -6.927741636E-01  2.253765087E+01  2.254945382E+01  5.110000000E-04  0.00000E+00  9.000E+00
     -11     1     3     3     0     0 -1.245372801E-01  6.188996200E-01  4.331570218E+01  4.332030242E+01  5.110000000E-04  0.00000E+00  9.000E+00
      -2     1     1     2     0   501  3.530642362E-01  7.387454366E-02  4.268927680E+00  4.284139977E+00  0.000000000E+00  0.00000E+00  9.000E+00
#rwgt            1           7  -3435139.9801490577                3    12015213           0
<weights>
-.11145E+08
-.12196E+08
-.99153E+07
-.14825E+08
-.79447E+07
-.91691E+07
-.13910E+08
-.11178E+08
-.11112E+08
-.10834E+08
-.10829E+08
-.10966E+08
-.11016E+08
-.10853E+08
-.10839E+08
-.11225E+08
-.11202E+08
-.11448E+08
-.11483E+08
-.11472E+08
-.11425E+08
-.11483E+08
-.11504E+08
-.11384E+08
-.11329E+08
-.11284E+08
-.11302E+08
-.11419E+08
-.11357E+08
-.11459E+08
-.11495E+08
-.11179E+08
-.11216E+08
-.11139E+08
-.11175E+08
-.11214E+08
-.11095E+08
-.11112E+08
-.11103E+08
-.11161E+08
-.11132E+08
-.11182E+08
-.11107E+08
-.11490E+08
-.10828E+08
</weights>
</event>
<event>
      7  10001  1.11453E+07  8.94427E-01 -1.00000E+00  6.07649E-01
      21    -1     0     0   511   502  0.000000000E+00  0.000000000E+00  5.715186047E-01  5.715186047E-01  0.000000000E+00  0.00000E+00  9.000E+00
       1    -1     0     0   501     0  0.000000000E+00  0.000000000E+00 -1.458974616E+02  1.458974616E+02  0.000000000E+00  0.00000E+00  9.000E+00
      23     2     1     2     0     0  7.283207344E-01 -5.057315618E-01 -1.235040296E+02  1.235123457E+02  1.126053876E+00  0.00000E+00  9.000E+00
      11     1     3     3     0     0  1.305927860E-01  2.872268390E-01 -1.289821315E+01  1.290207178E+01  5.110000000E-04  0.00000E+00  9.000E+00
     -11     1     3     3     0     0  5.977279485E-01 -7.929584008E-01 -1.106058165E+02  1.106102739E+02  5.110000000E-04  0.00000E+00  9.000E+00
      21     1     1     2   501   502 -1.275151960E+00  6.130459843E-01 -3.239833173E-01  1.451483066E+00  8.254523765E-07  0.00000E+00  9.000E+00
       1     1     1     2   511     0  5.468312259E-01 -1.073144225E-01 -2.149793006E+01  2.150515142E+01  0.000000000E+00  0.00000E+00  9.000E+00
#rwgt            2         187   1149723.0589056802                3    12018796           0
<weights>
0.11145E+08
0.10453E+08
0.11787E+08
0.12704E+08
0.94443E+07
0.91702E+07
0.13910E+08
0.11214E+08
0.11077E+08
0.11181E+08
0.11203E+08
0.11234E+08
0.11027E+08
0.11195E+08
0.11200E+08
0.10433E+08
0.11968E+08
0.10680E+08
0.11537E+08
0.11588E+08
0.10627E+08
0.11135E+08
0.11021E+08
0.11320E+08
0.10876E+08
0.10912E+08
0.11251E+08
0.11350E+08
0.10677E+08
0.11152E+08
0.11048E+08
0.11101E+08
0.11169E+08
0.10699E+08
0.11581E+08
0.11105E+08
0.11171E+08
0.11140E+08
0.11163E+08
0.11214E+08
0.11073E+08
0.11220E+08
0.11064E+08
0.11088E+08
0.11196E+08
</weights>
</event>
<event>
      7  10001  1.11453E+07  6.01094E+00 -1.00000E+00  2.24260E-01
      21    -1     0     0   502   501  0.000000000E+00  0.000000000E+00  9.716844396E+01  9.716844396E+01  0.000000000E+00  0.00000E+00  9.000E+00
       4    -1     0     0   501     0  0.000000000E+00  0.000000000E+00 -1.705188776E-01  1.705188776E-01  0.000000000E+00  0.00000E+00  9.000E+00
      23     2     1     2     0     0 -1.156220360E+00 -6.448348127E-01  1.301037703E+01  1.314206037E+01  1.300454842E+00  0.00000E+00  9.000E+00
      11     1     3     3     0     0 -8.877383690E-01 -1.000161617E+00  7.907442264E+00  8.019728555E+00  5.110000000E-04  0.00000E+00  9.000E+00
     -11     1     3     3     0     0 -2.684819910E-01  3.553268044E-01  5.102934764E+00  5.122331811E+00  5.110000000E-04  0.00000E+00  9.000E+00
       4     1     1     2   511     0  2.347427780E+00 -6.027944753E-01  1.555995721E+01  1.574757272E+01  0.000000000E+00  0.00000E+00  9.000E+00
      21     1     1     2   502   511 -1.191207420E+00  1.247629288E+00  6.842759085E+01  6.844932975E+01  9.536743164E-07  0.00000E+00  9.000E+00
#rwgt            2         195   1081413.4546271011                3    12019826           0
<weights>
0.11145E+08
0.10783E+08
0.11347E+08
0.13105E+08
0.90918E+07
0.91702E+07
0.13910E+08
0.11183E+08
0.11105E+08
0.10804E+08
0.10787E+08
0.10951E+08
0.10997E+08
0.10819E+08
0.10799E+08
0.11232E+08
0.11221E+08
0.11493E+08
0.11519E+08
0.11510E+08
0.11466E+08
0.11533E+08
0.11548E+08
0.11407E+08
0.11350E+08
0.11312E+08
0.11255E+08
0.11467E+08
0.11386E+08
0.11512E+08
0.11544E+08
0.11193E+08
0.11217E+08
0.11134E+08
0.11184E+08
0.11219E+08
0.11091E+08
0.11159E+08
0.11055E+08
0.11174E+08
0.11121E+08
0.11186E+08
0.11103E+08
0.11533E+08
0.10790E+08
</weights>
</event>
<event>
      6  10001 -1.11453E+07  8.94427E-01 -1.00000E+00  3.99176E-01
      21    -1     0     0   502   501  0.000000000E+00  0.000000000E+00  1.270886022E-02  1.270886022E-02  0.000000000E+00  0.00000E+00  9.000E+00
       2    -1     0     0   501     0  0.000000000E+00  0.000000000E+00 -2.365777237E+02  2.365777237E+02  0.000000000E+00  0.00000E+00  9.000E+00
      23     2     1     2     0     0  7.617502330E-01  7.960957637E-01 -1.928798417E+02  1.928913664E+02  1.797737958E+00  0.00000E+00  9.000E+00
      11     1     3     3     0     0 -4.452167530E-01 -2.503913412E-01 -4.543838911E+01  4.544126010E+01  5.110000000E-04  0.00000E+00  9.000E+00
     -11     1     3     3     0     0  1.206966986E+00  1.046487105E+00 -1.474414526E+02  1.474501063E+02  5.110000000E-04  0.00000E+00  9.000E+00
       2     1     1     2   502     0 -7.617502330E-01 -7.960957637E-01 -4.368517317E+01  4.369906620E+01  0.000000000E+00  0.00000E+00  9.000E+00
#rwgt            1          17  -16887090.068956323                3    12020115           0
<weights>
-.11145E+08
-.12551E+08
-.95048E+07
-.15254E+08
-.76158E+07
-.91702E+07
-.13910E+08
-.11128E+08
-.11162E+08
-.11172E+08
-.11167E+08
-.11083E+08
-.11224E+08
-.11169E+08
-.11167E+08
-.11320E+08
-.10873E+08
-.11272E+08
-.10910E+08
-.10884E+08
-.11285E+08
-.11103E+08
-.11145E+08
-.11161E+08
-.11076E+08
-.11156E+08
-.11128E+08
-.10988E+08
-.11260E+08
-.11097E+08
-.11145E+08
-.11050E+08
-.11233E+08
-.11269E+08
-.10980E+08
-.11134E+08
-.11152E+08
-.11171E+08
-.11120E+08
-.11175E+08
-.11116E+08
-.11160E+08
-.11129E+08
-.11119E+08
-.11170E+08
</weights>
</event>
<event>
      7  10001  1.11453E+07  2.81709E+00 -1.00000E+00  3.00358E-01
       2    -1     0     0   501     0  0.000000000E+00  0.000000000E+00  1.026307034E+00  1.026307034E+00  0.000000000E+00  0.00000E+00  9.000E+00
      21    -1     0     0   502   511  0.000000000E+00  0.000000000E+00 -1.069826045E+02  1.069826045E+02  0.000000000E+00  0.00000E+00  9.000E+00
      23     2     1     2     0     0 -2.408194643E-01 -5.801414278E-01 -1.726043447E+00  2.168575897E+00  1.152795449E+00  0.00000E+00  9.000E+00
      11     1     3     3     0     0  3.599128885E-01 -5.717784617E-01 -1.164012566E+00  1.345880162E+00  5.110000000E-04  0.00000E+00  9.000E+00
     -11     1     3     3     0     0 -6.007323528E-01 -8.362966081E-03 -5.620308812E-01  8.226957345E-01  5.110000000E-04  0.00000E+00  9.000E+00
       2     1     1     2   502     0  2.612057457E+00  2.101076602E+00 -2.791078885E+00  4.362050938E+00  0.000000000E+00  0.00000E+00  9.000E+00
      21     1     1     2   501   511 -2.371237993E+00 -1.520935174E+00 -1.014391751E+02  1.014782847E+02  1.907348633E-06  0.00000E+00  9.000E+00
#rwgt            1          24   562274.70137941604                3    12020548           0
<weights>
0.11145E+08
0.12695E+08
0.96478E+07
0.11791E+08
0.10009E+08
0.11585E+08
0.10204E+08
0.11220E+08
0.11065E+08
0.10702E+08
0.10687E+08
0.10897E+08
0.10954E+08
0.10716E+08
0.10698E+08
0.11251E+08
0.11258E+08
0.11600E+08
0.11622E+08
0.11619E+08
0.11563E+08
0.11643E+08
0.11679E+08
0.11419E+08
0.11456E+08
0.11412E+08
0.11112E+08
0.11575E+08
0.11436E+08
0.11614E+08
0.11660E+08
0.11202E+08
0.11241E+08
0.11130E+08
0.11194E+08
0.11267E+08
0.11046E+08
0.11136E+08
0.11022E+08
0.11194E+08
0.11104E+08
0.11191E+08
0.11098E+08
0.11647E+08
0.10687E+08
</weights>
</event>
<event>
      6  10001  1.11453E+07  8.94427E-01 -1.00000E+00  5.98469E-01
       4    -1     0     0   501     0  0.000000000E+00  0.000000000E+00  8.304889874E-01  8.304889874E-01  0.000000000E+00  0.00000E+00  9.000E+00
      -4    -1     0     0     0   502  0.000000000E+00  0.000000000E+00 -2.336031054E+00  2.336031054E+00  0.000000000E+00  0.00000E+00  9.000E+00
      23     2     1     2     0     0 -2.374649310E-01  1.015972359E-01  4.658905875E-01  1.178239804E+00  1.050944054E+00  0.00000E+00  9.000E+00
      11     1     3     3     0     0 -3.781873743E-01 -2.470295354E-01 -1.332055221E-01  4.709493112E-01  5.110000000E-04  0.00000E+00  9.000E+00
     -11     1     3     3     0     0  1.407224434E-01  3.486267713E-01  5.990961096E-01  7.072904930E-01  5.110000000E-04  0.00000E+00  9.000E+00
      21     1     1     2   501   502  2.374649310E-01 -1.015972359E-01 -1.971432654E+00  1.988280237E+00  2.980232239E-08  0.00000E+00  9.000E+00
#rwgt            1          27   274957.98288206925                3    12047973           0
<weights>
0.11145E+08
0.13648E+08
0.87416E+07
0.13256E+08
0.87645E+07
0.11217E+08
0.10768E+08
0.11203E+08
0.11083E+08
0.10778E+08
0.10756E+08
0.10931E+08
0.10993E+08
0.10790E+08
0.10769E+08
0.11239E+08
0.11237E+08
0.11533E+08
0.11534E+08
0.11532E+08
0.11502E+08
0.11569E+08
0.11583E+08
0.11381E+08
0.11398E+08
0.11374E+08
0.11110E+08
0.11514E+08
0.11389E+08
0.11548E+08
0.11580E+08
0.11202E+08
0.11218E+08
0.11126E+08
0.11194E+08
0.11248E+08
0.11061E+08
0.11166E+08
0.11026E+08
0.11182E+08
0.11115E+08
0.11181E+08
0.11108E+08
0.11566E+08
0.10760E+08
</weights>
</event>
<event>
      6  10001 -1.11453E+07  8.94427E-01 -1.00000E+00  6.59927E-01
       2    -1     0     0   501     0  0.000000000E+00  0.000000000E+00  1.619839236E+02  1.619839236E+02  0.000000000E+00  0.00000E+00  9.000E+00
      21    -1     0     0   502   501  0.000000000E+00  0.000000000E+00 -6.124345160E-03  6.124345160E-03  0.000000000E+00  0.00000E+00  9.000E+00
      23     2     1     2     0     0  4.586152335E-01 -2.427817666E-01  1.360043214E+02  1.360113870E+02  1.285570776E+00  0.00000E+00  9.000E+00
      11     1     3     3     0     0 -3.010684381E-01  2.949157845E-01  5.759664038E+01  5.759818227E+01  5.110000000E-04  0.00000E+00  9.000E+00
     -11     1     3     3     0     0  7.596836717E-01 -5.376975512E-01  7.840768102E+01  7.841320476E+01  5.110000000E-04  0.00000E+00  9.000E+00
       2     1     1     2   502     0 -4.586152335E-01  2.427817666E-01  2.597347786E+01  2.597866092E+01  0.000000000E+00  0.00000E+00  9.000E+00
#rwgt            1          24  -14645153.868765833                3    12049697           0
<weights>
-.11145E+08
-.12165E+08
-.99470E+07
-.14792E+08
-.79703E+07
-.91661E+07
-.13909E+08
-.11180E+08
-.11111E+08
-.10839E+08
-.10838E+08
-.10968E+08
-.11020E+08
-.10860E+08
-.10847E+08
-.11223E+08
-.11198E+08
-.11439E+08
-.11474E+08
-.11464E+08
-.11417E+08
-.11472E+08
-.11496E+08
-.11374E+08
-.11328E+08
-.11282E+08
-.11296E+08
-.11409E+08
-.11350E+08
-.11447E+08
-.11485E+08
-.11175E+08
-.11216E+08
-.11140E+08
-.11173E+08
-.11216E+08
-.11092E+08
-.11100E+08
-.11116E+08
-.11159E+08
-.11134E+08
-.11181E+08
-.11108E+08
-.11481E+08
-.10835E+08
</weights>
</event>
<event>
      6  10001  1.11453E+07  8.94427E-01 -1.00000E+00  5.99299E-01
      -2    -1     0     0     0   502  0.000000000E+00  0.000000000E+00  3.941760338E+01  3.941760338E+01  0.000000000E+00  0.00000E+00  9.000E+00
       2    -1     0     0   501     0  0.000000000E+00  0.000000000E+00 -1.188820032E-01  1.188820032E-01  0.000000000E+00  0.00000E+00  9.000E+00
      23     2     1     2     0     0  1.394558966E-01 -4.661983588E-01  3.881027574E+01  3.884701603E+01  1.617517241E+00  0.00000E+00  9.000E+00
      11     1     3     3     0     0  8.263122946E-02  3.034463265E-01  3.034633323E+01  3.034796284E+01  5.110000000E-04  0.00000E+00  9.000E+00
     -11     1     3     3     0     0  5.682466711E-02 -7.696446854E-01  8.463942510E+00  8.499053186E+00  5.110000000E-04  0.00000E+00  9.000E+00
      21     1     1     2   501   502 -1.394558966E-01  4.661983588E-01  4.884456328E-01  6.894693561E-01  4.312335291E-08  0.00000E+00  9.000E+00
#rwgt            1           8   497201.58718171431                3    12050954           0
<weights>
0.11145E+08
0.12042E+08
0.10188E+08
0.12343E+08
0.95847E+07
0.10681E+08
0.11591E+08
0.10978E+08
0.11369E+08
0.10807E+08
0.10769E+08
0.10969E+08
0.10961E+08
0.10815E+08
0.10783E+08
0.11194E+08
0.11285E+08
0.11510E+08
0.11531E+08
0.11513E+08
0.11487E+08
0.11555E+08
0.11552E+08
0.11490E+08
0.11293E+08
0.11330E+08
0.11310E+08
0.11503E+08
0.11367E+08
0.11543E+08
0.11554E+08
0.11174E+08
0.11242E+08
0.11134E+08
0.11190E+08
0.11064E+08
0.11264E+08
0.11195E+08
0.11025E+08
0.11176E+08
0.11117E+08
0.11212E+08
0.11075E+08
0.11542E+08
0.10783E+08
</weights>
</event>
<event>
      6  10001 -1.11453E+07  8.94427E-01 -1.00000E+00  6.07630E-01
      21    -1     0     0   502   501  0.000000000E+00  0.000000000E+00  4.551474038E-02  4.551474038E-02  0.000000000E+00  0.00000E+00  9.000E+00
      -2    -1     0     0     0   502  0.000000000E+00  0.000000000E+00 -1.456789454E+01  1.456789454E+01  0.000000000E+00  0.00000E+00  9.000E+00
      23     2     1     2     0     0  4.866735402E-02 -2.717731522E-01 -1.160672864E+01  1.168471489E+01  1.319160013E+00  0.00000E+00  9.000E+00
      11     1     3     3     0     0  6.669094998E-01 -1.029429208E-01 -4.679747130E+00  4.728149637E+00  5.110000000E-04  0.00000E+00  9.000E+00
     -11     1     3     3     0     0 -6.182421458E-01 -1.688302314E-01 -6.926981511E+00  6.956565253E+00  5.110000000E-04  0.00000E+00  9.000E+00
      -2     1     1     2     0   501 -4.866735402E-02  2.717731522E-01 -2.915651163E+00  2.928694396E+00  0.000000000E+00  0.00000E+00  9.000E+00
#rwgt            1          14  -910402.02434372401                3    12054637           0
<weights>
-.11145E+08
-.54032E+07
-.15479E+08
-.17308E+08
-.64310E+07
-.24233E+07
-.24267E+08
-.11300E+08
-.10999E+08
-.11163E+08
-.11276E+08
-.11049E+08
-.11354E+08
-.11242E+08
-.11275E+08
-.11274E+08
-.10834E+08
-.10982E+08
-.11000E+08
-.11017E+08
-.10982E+08
-.10973E+08
-.10986E+08
-.10916E+08
-.11200E+08
-.10966E+08
-.11189E+08
-.10918E+08
-.11127E+08
-.10916E+08
-.10994E+08
-.11143E+08
-.11099E+08
-.11113E+08
-.11154E+08
-.11640E+08
-.10646E+08
-.10805E+08
-.11588E+08
-.11030E+08
-.11258E+08
-.11023E+08
-.11276E+08
-.11034E+08
-.11227E+08
</weights>
</event>
<event>
      7  10001  1.11453E+07  2.84182E+00 -1.00000E+00  2.99209E-01
       2    -1     0     0   501     0  0.000000000E+00  0.000000000E+00  4.972336375E+01  4.972336375E+01  0.000000000E+00  0.00000E+00  9.000E+00
      21    -1     0     0   511   501  0.000000000E+00  0.000000000E+00 -5.260551414E+01  5.260551414E+01  0.000000000E+00  0.00000E+00  9.000E+00
      23     2     1     2     0     0  9.515644302E-01  1.613593528E+00  2.654106636E+01  2.665753157E+01  1.639093301E+00  0.00000E+00  9.000E+00
      11     1     3     3     0     0  1.774693015E-01  1.295468424E+00  2.207718554E+01  2.211587339E+01  5.110000000E-04  0.00000E+00  9.000E+00
     -11     1     3     3     0     0  7.740951288E-01  3.181251043E-01  4.463880818E+00  4.541658185E+00  5.110000000E-04  0.00000E+00  9.000E+00
       2     1     1     2   502     0  1.887534256E+00 -1.489231739E+00  2.302299707E+01  2.314819628E+01  0.000000000E+00  0.00000E+00  9.000E+00
      21     1     1     2   511   502 -2.839098686E+00 -1.243617887E-01 -5.244621382E+01  5.252315005E+01  0.000000000E+00  0.00000E+00  9.000E+00
#rwgt            1          24   1261033.8755200647                3    12066922           0
<weights>
0.11145E+08
0.13432E+08
0.87576E+07
0.13010E+08
0.90791E+07
0.11365E+08
0.10541E+08
0.11154E+08
0.11138E+08
0.10777E+08
0.10744E+08
0.10944E+08
0.10968E+08
0.10786E+08
0.10758E+08
0.11234E+08
0.11245E+08
0.11528E+08
0.11584E+08
0.11568E+08
0.11500E+08
0.11583E+08
0.11592E+08
0.11504E+08
0.11336E+08
0.11305E+08
0.11459E+08
0.11505E+08
0.11432E+08
0.11567E+08
0.11595E+08
0.11206E+08
0.11219E+08
0.11132E+08
0.11191E+08
0.11192E+08
0.11121E+08
0.11215E+08
0.11000E+08
0.11188E+08
0.11109E+08
0.11197E+08
0.11092E+08
0.11575E+08
0.10753E+08
</weights>
</event>
<event>
      7  10001  1.11453E+07  1.69820E+00 -1.00000E+00  3.87297E-01
      21    -1     0     0   502   501  0.000000000E+00  0.000000000E+00  1.424484853E+01  1.424484853E+01  0.000000000E+00  0.00000E+00  9.000E+00
      21    -1     0     0   501   511  0.000000000E+00  0.000000000E+00 -1.481248859E+00  1.481248859E+00  0.000000000E+00  0.00000E+00  9.000E+00
      23     2     1     2     0     0 -2.468164528E+00  7.340003348E-01  8.231078836E+00  8.697479271E+00  1.124675168E+00  0.00000E+00  9.000E+00
      11     1     3     3     0     0 -4.164669526E-01  6.303239858E-01  2.181830831E+00  2.308925959E+00  5.110000000E-04  0.00000E+00  9.000E+00
     -11     1     3     3     0     0 -2.051697575E+00  1.036763490E-01  6.049248005E+00  6.388553312E+00  5.110000000E-04  0.00000E+00  9.000E+00
       4     1     1     2   502     0  1.610913156E+00  7.319469586E-01  4.969495467E+00  5.275099311E+00  0.000000000E+00  0.00000E+00  9.000E+00
      -4     1     1     2     0   511  8.572513711E-01 -1.465947293E+00 -4.369746305E-01  1.753518807E+00  0.000000000E+00  0.00000E+00  9.000E+00
#rwgt            1          19   628041.16852532665                3    12093185           0
<weights>
0.11145E+08
0.12807E+08
0.95227E+07
0.12418E+08
0.95535E+07
0.11237E+08
0.10737E+08
0.11185E+08
0.11102E+08
0.10774E+08
0.10744E+08
0.10935E+08
0.10978E+08
0.10784E+08
0.10758E+08
0.11240E+08
0.11241E+08
0.11539E+08
0.11558E+08
0.11551E+08
0.11508E+08
0.11584E+08
0.11593E+08
0.11435E+08
0.11372E+08
0.11341E+08
0.11230E+08
0.11517E+08
0.11415E+08
0.11566E+08
0.11595E+08
0.11207E+08
0.11218E+08
0.11128E+08
0.11194E+08
0.11223E+08
0.11088E+08
0.11204E+08
0.11006E+08
0.11187E+08
0.11110E+08
0.11189E+08
0.11099E+08
0.11577E+08
0.10751E+08
</weights>
</event>
<event>
      7  10001  1.11453E+07  1.10169E+00 -1.00000E+00  5.26473E-01
      21    -1     0     0   502   501  0.000000000E+00  0.000000000E+00  6.597438715E+01  6.597438715E+01  0.000000000E+00  0.00000E+00  9.000E+00
       2    -1     0     0   501     0  0.000000000E+00  0.000000000E+00 -9.910970090E-02  9.910970090E-02  0.000000000E+00  0.00000E+00  9.000E+00
      23     2     1     2     0     0  8.004054717E-01 -9.201724434E-01  2.126949318E+01  2.141525461E+01  2.175873089E+00  0.00000E+00  9.000E+00
      11     1     3     3     0     0  1.983300757E-01  5.524342819E-01  1.167570566E+01  1.169045001E+01  5.110000000E-04  0.00000E+00  9.000E+00
     -11     1     3     3     0     0  6.020753961E-01 -1.472606725E+00  9.593787519E+00  9.724804603E+00  5.110000000E-04  0.00000E+00  9.000E+00
       2     1     1     2   511     0 -6.394230789E-01  1.461007154E+00  3.158735023E+01  3.162758446E+01  0.000000000E+00  0.00000E+00  9.000E+00
      21     1     1     2   502   511 -1.609823928E-01 -5.408347102E-01  1.301843403E+01  1.303065778E+01  1.685873940E-07  0.00000E+00  9.000E+00
#rwgt            1          17   647328.00962191250                3    12101978           0
<weights>
0.11145E+08
0.12332E+08
0.98730E+07
0.12640E+08
0.94987E+07
0.10783E+08
0.11433E+08
0.10965E+08
0.11388E+08
0.10806E+08
0.10765E+08
0.10970E+08
0.10957E+08
0.10813E+08
0.10779E+08
0.11193E+08
0.11290E+08
0.11513E+08
0.11535E+08
0.11517E+08
0.11491E+08
0.11559E+08
0.11555E+08
0.11500E+08
0.11290E+08
0.11331E+08
0.11323E+08
0.11507E+08
0.11369E+08
0.11548E+08
0.11558E+08
0.11174E+08
0.11243E+08
0.11134E+08
0.11191E+08
0.11056E+08
0.11274E+08
0.11201E+08
0.11020E+08
0.11177E+08
0.11116E+08
0.11213E+08
0.11074E+08
0.11546E+08
0.10780E+08
</weights>
</event>
<event>
      6  10001 -1.11453E+07  8.94427E-01 -1.00000E+00  1.86239E-01
       2    -1     0     0   501     0  0.000000000E+00  0.000000000E+00  2.065095925E-02  2.065095925E-02  0.000000000E+00  0.00000E+00  9.000E+00
      -2    -1     0     0     0   502  0.000000000E+00  0.000000000E+00 -1.009619801E+02  1.009619801E+02  0.000000000E+00  0.00000E+00  9.000E+00
      23     2     1     2     0     0  3.952887749E-02  2.486407939E-01 -9.301594427E+01  9.305324835E+01  2.622547530E+00  0.00000E+00  9.000E+00
      11     1     3     3     0     0  7.573658808E-01  4.217635179E-02 -8.443081212E+00  8.477086913E+00  5.110000000E-04  0.00000E+00  9.000E+00
     -11     1     3     3     0     0 -7.178370033E-01  2.064644421E-01 -8.457286306E+01  8.457616144E+01  5.110000000E-04  0.00000E+00  9.000E+00
      21     1     1     2   501   502 -3.952887749E-02 -2.486407939E-01 -7.925384843E+00  7.929382680E+00  0.000000000E+00  0.00000E+00  9.000E+00
#rwgt            1          23  -497154.56472470204                3    12122917           0
<weights>
-.11145E+08
-.12302E+08
-.98254E+07
-.14951E+08
-.78726E+07
-.91702E+07
-.13910E+08
-.11166E+08
-.11123E+08
-.11169E+08
-.11204E+08
-.11096E+08
-.11172E+08
-.11213E+08
-.11210E+08
-.11056E+08
-.11190E+08
-.11127E+08
-.10983E+08
-.10957E+08
-.11146E+08
-.11064E+08
-.11047E+08
-.11143E+08
-.11057E+08
-.11114E+08
-.11127E+08
-.11076E+08
-.10989E+08
-.11054E+08
-.11069E+08
-.11136E+08
-.11128E+08
-.11287E+08
-.11004E+08
-.11066E+08
-.11204E+08
-.11067E+08
-.11255E+08
-.11094E+08
-.11177E+08
-.11273E+08
-.11008E+08
-.11077E+08
-.11198E+08
</weights>
</event>
<event>
      6  10001  1.11453E+07  8.94427E-01 -1.00000E+00  5.99086E-01
       1    -1     0     0   501     0  0.000000000E+00  0.000000000E+00  3.046644649E-02  3.046644649E-02  0.000000000E+00  0.00000E+00  9.000E+00
      -1    -1     0     0     0   502  0.000000000E+00  0.000000000E+00 -2.315513640E+02  2.315513640E+02  0.000000000E+00  0.00000E+00  9.000E+00
      23     2     1     2     0     0 -1.300724046E+00 -2.868039988E-01 -2.143928724E+02  2.144020928E+02  1.476321798E+00  0.00000E+00  9.000E+00
      11     1     3     3     0     0 -1.112353291E+00 -5.550092472E-01 -8.784026969E+01  8.784906570E+01  5.110000000E-04  0.00000E+00  9.000E+00
     -11     1     3     3     0     0 -1.883707547E-01  2.682052484E-01 -1.265526027E+02  1.265530271E+02  5.110000000E-04  0.00000E+00  9.000E+00
      21     1     1     2   501   502  1.300724046E+00  2.868039988E-01 -1.712802514E+01  1.717973762E+01  5.840038640E-07  0.00000E+00  9.000E+00
#rwgt            1          21   57742.362643433589                3    12123351           0
<weights>
0.11145E+08
0.11371E+08
0.10838E+08
0.12593E+08
0.95514E+07
0.10028E+08
0.12593E+08
0.11046E+08
0.11237E+08
0.11266E+08
0.11272E+08
0.11126E+08
0.11177E+08
0.11258E+08
0.11269E+08
0.11029E+08
0.11221E+08
0.11107E+08
0.10940E+08
0.10912E+08
0.11127E+08
0.11009E+08
0.11041E+08
0.11105E+08
0.11056E+08
0.11034E+08
0.11163E+08
0.11009E+08
0.10983E+08
0.11033E+08
0.11045E+08
0.11269E+08
0.10978E+08
0.11369E+08
0.10927E+08
0.11254E+08
0.11021E+08
0.11339E+08
0.10936E+08
0.11167E+08
0.11103E+08
0.11377E+08
0.10896E+08
0.11005E+08
0.11277E+08
</weights>
</event>
<event>
      7  10001  1.11453E+07  8.94427E-01 -1.00000E+00  6.07649E-01
       2    -1     0     0   501     0  0.000000000E+00  0.000000000E+00  3.349029384E+00  3.349029384E+00  0.000000000E+00  0.00000E+00  9.000E+00
      21    -1     0     0   511   502  0.000000000E+00  0.000000000E+00 -1.611740430E+00  1.611740430E+00  0.000000000E+00  0.00000E+00  9.000E+00
      23     2     1     2     0     0 -4.140283493E-02  4.703590704E-01  3.104631104E+00  3.310647475E+00  1.048189181E+00  0.00000E+00  9.000E+00
      11     1     3     3     0     0 -5.384637344E-01  3.252294307E-01  1.588165550E+00  1.708211770E+00  5.110000000E-04  0.00000E+00  9.000E+00
     -11     1     3     3     0     0  4.970608995E-01  1.451296397E-01  1.516465554E+00  1.602435705E+00  5.110000000E-04  0.00000E+00  9.000E+00
      21     1     1     2   501   502  1.153339108E-01 -6.808542356E-01 -1.130691013E+00  1.324887379E+00  1.032382731E-07  0.00000E+00  9.000E+00
       2     1     1     2   511     0 -7.393107585E-02  2.104951651E-01 -2.366511378E-01  3.252349606E-01  0.000000000E+00  0.00000E+00  9.000E+00
#rwgt            2         249   661063.17847746331                3    12125859           0
<weights>
0.11145E+08
0.11345E+08
0.10687E+08
0.13789E+08
0.85633E+07
0.91702E+07
0.13910E+08
0.11200E+08
0.11088E+08
0.10858E+08
0.10866E+08
0.10972E+08
0.11040E+08
0.10883E+08
0.10874E+08
0.11223E+08
0.11181E+08
0.11417E+08
0.11427E+08
0.11423E+08
0.11396E+08
0.11440E+08
0.11465E+08
0.11307E+08
0.11339E+08
0.11289E+08
0.11147E+08
0.11386E+08
0.11319E+08
0.11412E+08
0.11452E+08
0.11168E+08
0.11213E+08
0.11140E+08
0.11169E+08
0.11234E+08
0.11072E+08
0.11069E+08
0.11148E+08
0.11150E+08
0.11142E+08
0.11173E+08
0.11116E+08
0.11453E+08
0.10860E+08
</weights>
</event>
<event>
      6  10001 -1.11453E+07  8.94427E-01 -1.00000E+00  5.04291E-01
      21    -1     0     0   502   501  0.000000000E+00  0.000000000E+00  1.075321884E-02  1.075321884E-02  0.000000000E+00  0.00000E+00  9.000E+00
       2    -1     0     0   501     0  0.000000000E+00  0.000000000E+00 -1.325610867E+02  1.325610867E+02  0.000000000E+00  0.00000E+00  9.000E+00
      23     2     1     2     0     0  4.980806302E-01  1.151952253E-01 -1.184306499E+02  1.184429044E+02  1.625242895E+00  0.00000E+00  9.000E+00
      11     1     3     3     0     0  1.093982768E+00  1.462649788E-01 -7.327331112E+01  7.328162331E+01  5.110000000E-04  0.00000E+00  9.000E+00
     -11     1     3     3     0     0 -5.959021378E-01 -3.106975343E-02 -4.515733879E+01  4.516128111E+01  5.110000000E-04  0.00000E+00  9.000E+00
       2     1     1     2   502     0 -4.980806302E-01 -1.151952253E-01 -1.411968355E+01  1.412893548E+01  0.000000000E+00  0.00000E+00  9.000E+00
#rwgt            1          17  -11695717.802893182                3    12127934           0
<weights>
-.11145E+08
-.11906E+08
-.10231E+08
-.14470E+08
-.81979E+07
-.91702E+07
-.13910E+08
-.11141E+08
-.11149E+08
-.11165E+08
-.11172E+08
-.11143E+08
-.11150E+08
-.11173E+08
-.11172E+08
-.11233E+08
-.10983E+08
-.11133E+08
-.11080E+08
-.11078E+08
-.11133E+08
-.11108E+08
-.11118E+08
-.11217E+08
-.11022E+08
-.11078E+08
-.11172E+08
-.11144E+08
-.11056E+08
-.11117E+08
-.11116E+08
-.11103E+08
-.11176E+08
-.11137E+08
-.11148E+08
-.11139E+08
-.11146E+08
-.11152E+08
-.11143E+08
-.11122E+08
-.11162E+08
-.11183E+08
-.11105E+08
-.11115E+08
-.11171E+08
</weights>
</event>
<event>
      6  10001 -1.11453E+07  8.94427E-01 -1.00000E+00  4.68436E-01
       2    -1     0     0   501     0  0.000000000E+00  0.000000000E+00  2.457804466E+02  2.457804466E+02  0.000000000E+00  0.00000E+00  9.000E+00
      21    -1     0     0   502   501  0.000000000E+00  0.000000000E+00 -4.393857425E-03  4.393857425E-03  0.000000000E+00  0.00000E+00  9.000E+00
      23     2     1     2     0     0  6.059477927E-01 -9.706119311E-02  2.044767584E+02  2.044809870E+02  1.163074855E+00  0.00000E+00  9.000E+00
      11     1     3     3     0     0 -1.465273276E-01  1.671731580E-01  9.511213771E+00  9.513811265E+00  5.110000000E-04  0.00000E+00  9.000E+00
     -11     1     3     3     0     0  7.524751202E-01 -2.642343511E-01  1.949655446E+02  1.949671757E+02  5.110000000E-04  0.00000E+00  9.000E+00
       2     1     1     2   502     0 -6.059477927E-01  9.706119311E-02  4.129929442E+01  4.130385349E+01  0.000000000E+00  0.00000E+00  9.000E+00
#rwgt            1          24  -14051040.214647442                3    12129900           0
<weights>
-.11145E+08
-.12104E+08
-.10008E+08
-.14719E+08
-.80190E+07
-.91657E+07
-.13909E+08
-.11172E+08
-.11120E+08
-.10825E+08
-.10816E+08
-.10963E+08
-.11008E+08
-.10843E+08
-.10827E+08
-.11225E+08
-.11210E+08
-.11459E+08
-.11501E+08
-.11489E+08
-.11436E+08
-.11498E+08
-.11518E+08
-.11408E+08
-.11328E+08
-.11286E+08
-.11350E+08
-.11432E+08
-.11369E+08
-.11475E+08
-.11510E+08
-.11183E+08
-.11217E+08
-.11138E+08
-.11177E+08
-.11209E+08
-.11101E+08
-.11129E+08
-.11087E+08
-.11165E+08
-.11128E+08
-.11185E+08
-.11104E+08
-.11503E+08
-.10816E+08
</weights>
</event>
<event>
      7  10001  1.11453E+07  8.94427E-01 -1.00000E+00  6.07649E-01
      21    -1     0     0   511   502  0.000000000E+00  0.000000000E+00  3.586434400E+00  3.586434400E+00  0.000000000E+00  0.00000E+00  9.000E+00
       5    -1     0     0   501     0  0.000000000E+00  0.000000000E+00 -2.005662650E+00  2.005662650E+00  0.000000000E+00  0.00000E+00  9.000E+00
      23     2     1     2     0     0 -3.123995542E-01 -3.607208751E-01 -1.510928030E+00  2.369534232E+00  1.761838793E+00  0.00000E+00  9.000E+00
      11     1     3     3     0     0 -1.932730717E-01  5.609218060E-01 -1.281725427E+00  1.412376750E+00  5.110000000E-04  0.00000E+00  9.000E+00
     -11     1     3     3     0     0 -1.191264826E-01 -9.216426811E-01 -2.292026027E-01  9.571574816E-01  5.110000000E-04  0.00000E+00  9.000E+00
      21     1     1     2   501   502  1.251470002E-01  5.683601662E-01  2.517672522E+00  2.584060754E+00  7.300048300E-08  0.00000E+00  9.000E+00
       5     1     1     2   511     0  1.872525540E-01 -2.076392911E-01  5.740272570E-01  6.385020642E-01  0.000000000E+00  0.00000E+00  9.000E+00
#rwgt            2         199   314107.62235126103                3    12130950           0
<weights>
0.11145E+08
0.12098E+08
0.97249E+07
0.14704E+08
0.77921E+07
0.91702E+07
0.13910E+08
0.11207E+08
0.11081E+08
0.10848E+08
0.10857E+08
0.10964E+08
0.11040E+08
0.10873E+08
0.10865E+08
0.11224E+08
0.11188E+08
0.11428E+08
0.11434E+08
0.11431E+08
0.11406E+08
0.11449E+08
0.11477E+08
0.11297E+08
0.11357E+08
0.11314E+08
0.11108E+08
0.11401E+08
0.11316E+08
0.11420E+08
0.11461E+08
0.11168E+08
0.11216E+08
0.11138E+08
0.11171E+08
0.11247E+08
0.11059E+08
0.11060E+08
0.11150E+08
0.11151E+08
0.11142E+08
0.11171E+08
0.11119E+08
0.11463E+08
0.10850E+08
</weights>
</event>
<event>
      6  10001 -1.11453E+07  8.94427E-01 -1.00000E+00  3.93504E-01
       2    -1     0     0   501     0  0.000000000E+00  0.000000000E+00  2.239641053E+02  2.239641053E+02  0.000000000E+00  0.00000E+00  9.000E+00
      21    -1     0     0   502   501  0.000000000E+00  0.000000000E+00 -1.801470945E-02  1.801470945E-02  0.000000000E+00  0.00000E+00  9.000E+00
      23     2     1     2     0     0  1.539086217E-01 -2.860694150E-01  2.219009258E+02  2.219113176E+02  2.122848790E+00  0.00000E+00  9.000E+00
      11     1     3     3     0     0  6.562562470E-01 -9.366778351E-01  1.703482989E+02  1.703521382E+02  5.110000000E-04  0.00000E+00  9.000E+00
     -11     1     3     3     0     0 -5.023476253E-01  6.506084201E-01  5.155262690E+01  5.155917944E+01  5.110000000E-04  0.00000E+00  9.000E+00
       2     1     1     2   502     0 -1.539086217E-01  2.860694150E-01  2.045164767E+00  2.070802381E+00  0.000000000E+00  0.00000E+00  9.000E+00
#rwgt            1          24  -27121014.212774295                3    12131372           0
<weights>
-.11145E+08
-.12301E+08
-.97879E+07
-.14958E+08
-.78428E+07
-.91656E+07
-.13909E+08
-.11173E+08
-.11118E+08
-.10826E+08
-.10818E+08
-.10963E+08
-.11009E+08
-.10844E+08
-.10828E+08
-.11225E+08
-.11209E+08
-.11458E+08
-.11498E+08
-.11487E+08
-.11435E+08
-.11496E+08
-.11516E+08
-.11404E+08
-.11329E+08
-.11286E+08
-.11339E+08
-.11431E+08
-.11368E+08
-.11474E+08
-.11509E+08
-.11182E+08
-.11217E+08
-.11138E+08
-.11177E+08
-.11210E+08
-.11100E+08
-.11127E+08
-.11089E+08
-.11165E+08
-.11129E+08
-.11184E+08
-.11105E+08
-.11501E+08
-.10818E+08
</weights>
</event>
<event>
      7  10001  1.11453E+07  8.94427E-01 -1.00000E+00  6.07649E-01
      21    -1     0     0   502   501  0.000000000E+00  0.000000000E+00  1.165359134E+00  1.165359134E+00  0.000000000E+00  0.00000E+00  9.000E+00
       4    -1     0     0   501     0  0.000000000E+00  0.000000000E+00 -9.322621875E-01  9.322621875E-01  0.000000000E+00  0.00000E+00  9.000E+00
      23     2     1     2     0     0  3.602816500E-02 -1.728724080E-01  1.566688639E-01  1.591729675E+00  1.574126846E+00  0.00000E+00  9.000E+00
      11     1     3     3     0     0  4.176988182E-01 -6.486326141E-02  7.600248175E-01  8.696651825E-01  5.110000000E-04  0.00000E+00  9.000E+00
     -11     1     3     3     0     0 -3.816706532E-01 -1.080091466E-01 -6.033559536E-01  7.220644923E-01  5.110000000E-04  0.00000E+00  9.000E+00
       4     1     1     2   511     0 -9.497317998E-02  7.429781240E-02  2.615653997E-01  2.880217494E-01  0.000000000E+00  0.00000E+00  9.000E+00
      21     1     1     2   502   511  5.894501498E-02  9.857459558E-02 -1.851373174E-01  2.178698969E-01  1.117587090E-08  0.00000E+00  9.000E+00
#rwgt            2         195   71728442.964773312                3    12133793           0
<weights>
0.11145E+08
0.12135E+08
0.98555E+07
0.14748E+08
0.78968E+07
0.91702E+07
0.13910E+08
0.11200E+08
0.11087E+08
0.10814E+08
0.10805E+08
0.10950E+08
0.11013E+08
0.10832E+08
0.10816E+08
0.11231E+08
0.11212E+08
0.11481E+08
0.11488E+08
0.11484E+08
0.11454E+08
0.11512E+08
0.11530E+08
0.11353E+08
0.11368E+08
0.11332E+08
0.11140E+08
0.11456E+08
0.11359E+08
0.11488E+08
0.11523E+08
0.11187E+08
0.11216E+08
0.11133E+08
0.11183E+08
0.11240E+08
0.11068E+08
0.11127E+08
0.11082E+08
0.11168E+08
0.11127E+08
0.11178E+08
0.11111E+08
0.11516E+08
0.10805E+08
</weights>
</event>
<event>
      6  10001 -1.11453E+07  8.94427E-01 -1.00000E+00  3.56097E-01
      21    -1     0     0   502   501  0.000000000E+00  0.000000000E+00  9.310431954E-03  9.310431954E-03  0.000000000E+00  0.00000E+00  9.000E+00
       2    -1     0     0   501     0  0.000000000E+00  0.000000000E+00 -3.364855537E+02  3.364855537E+02  0.000000000E+00  0.00000E+00  9.000E+00
      23     2     1     2     0     0  9.429143682E-01 -1.091509309E+00 -2.092645067E+02  2.092749506E+02  1.513506337E+00  0.00000E+00  9.000E+00
      11     1     3     3     0     0 -1.982200244E-01 -2.935332349E-01 -1.130630109E+01  1.131184766E+01  5.110000000E-04  0.00000E+00  9.000E+00
     -11     1     3     3     0     0  1.141134393E+00 -7.979760744E-01 -1.979582057E+02  1.979631030E+02  5.110000000E-04  0.00000E+00  9.000E+00
       2     1     1     2   502     0 -9.429143682E-01  1.091509309E+00 -1.272117366E+02  1.272199135E+02  0.000000000E+00  0.00000E+00  9.000E+00
#rwgt            1          17  -6709718.5302110612                3    12134139           0
<weights>
-.11145E+08
-.12102E+08
-.10006E+08
-.14708E+08
-.80175E+07
-.91702E+07
-.13910E+08
-.11127E+08
-.11162E+08
-.11169E+08
-.11159E+08
-.11039E+08
-.11271E+08
-.11163E+08
-.11160E+08
-.11336E+08
-.10858E+08
-.11364E+08
-.10805E+08
-.10762E+08
-.11388E+08
-.11104E+08
-.11160E+08
-.11113E+08
-.11130E+08
-.11229E+08
-.11087E+08
-.10883E+08
-.11401E+08
-.11084E+08
-.11166E+08
-.11026E+08
-.11260E+08
-.11372E+08
-.10857E+08
-.11121E+08
-.11166E+08
-.11163E+08
-.11129E+08
-.11210E+08
-.11086E+08
-.11147E+08
-.11143E+08
-.11125E+08
-.11165E+08
</weights>
</event>
<event>
      6  10001 -1.11453E+07  8.94427E-01 -1.00000E+00  5.98609E-01
      21    -1     0     0   502   501  0.000000000E+00  0.000000000E+00  1.061362979E-03  1.061362979E-03  0.000000000E+00  0.00000E+00  9.000E+00
       2    -1     0     0   501     0  0.000000000E+00  0.000000000E+00 -8.964207642E+02  8.964207642E+02  0.000000000E+00  0.00000E+00  9.000E+00
      23     2     1     2     0     0  1.795727465E-01  6.569375266E-01 -6.023528294E+02  6.023541635E+02  1.069297106E+00  0.00000E+00  9.000E+00
      11     1     3     3     0     0  1.087542681E-01 -2.529896195E-01 -6.843437022E+01  6.843492427E+01  5.110000000E-04  0.00000E+00  9.000E+00
     -11     1     3     3     0     0  7.081847838E-02  9.099271461E-01 -5.339184591E+02  5.339192392E+02  5.110000000E-04  0.00000E+00  9.000E+00
       2     1     1     2   502     0 -1.795727465E-01 -6.569375266E-01 -2.940668734E+02  2.940676621E+02  0.000000000E+00  0.00000E+00  9.000E+00
#rwgt            1          17  -27858123.260770146                3    12135795           0
<weights>
-.11145E+08
-.11205E+08
-.10998E+08
-.13618E+08
-.88119E+07
-.91702E+07
-.13910E+08
-.11137E+08
-.11154E+08
-.11163E+08
-.11136E+08
-.10911E+08
-.11406E+08
-.11152E+08
-.11145E+08
-.10883E+08
-.11521E+08
-.11599E+08
-.10534E+08
-.10434E+08
-.11664E+08
-.11125E+08
-.11163E+08
-.10909E+08
-.11357E+08
-.11639E+08
-.10852E+08
-.10519E+08
-.11886E+08
-.11046E+08
-.11214E+08
-.11168E+08
-.11119E+08
-.11796E+08
-.10382E+08
-.11043E+08
-.11240E+08
-.11114E+08
-.11189E+08
-.11335E+08
-.10978E+08
-.11114E+08
-.11178E+08
-.11140E+08
-.11151E+08
</weights>
</event>
<event>
      6  10001 -1.11453E+07  8.94427E-01 -1.00000E+00  3.68179E-01
      -2    -1     0     0     0   502  0.000000000E+00  0.000000000E+00  1.659743921E+02  1.659743921E+02  0.000000000E+00  0.00000E+00  9.000E+00
      21    -1     0     0   502   501  0.000000000E+00  0.000000000E+00 -1.711444441E-02  1.711444441E-02  0.000000000E+00  0.00000E+00  9.000E+00
      23     2     1     2     0     0  1.510819220E-01 -8.225590701E-01  1.460935888E+02  1.461102198E+02  2.039657141E+00  0.00000E+00  9.000E+00
      11     1     3     3     0     0 -7.619754701E-01 -3.643176967E-01  1.068436725E+02  1.068470106E+02  5.110000000E-04  0.00000E+00  9.000E+00
     -11     1     3     3     0     0  9.130573921E-01 -4.582413734E-01  3.924991638E+01  3.926320918E+01  5.110000000E-04  0.00000E+00  9.000E+00
      -2     1     1     2     0   501 -1.510819220E-01  8.225590701E-01  1.986368876E+01  1.988128669E+01  0.000000000E+00  0.00000E+00  9.000E+00
#rwgt            1           7  -3420774.2248900319                3    12136347           0
<weights>
-.11145E+08
-.12091E+08
-.10030E+08
-.14704E+08
-.80366E+07
-.91644E+07
-.13909E+08
-.11181E+08
-.11110E+08
-.10845E+08
-.10848E+08
-.10971E+08
-.11025E+08
-.10868E+08
-.10857E+08
-.11222E+08
-.11192E+08
-.11428E+08
-.11463E+08
-.11453E+08
-.11407E+08
-.11460E+08
-.11485E+08
-.11364E+08
-.11325E+08
-.11276E+08
-.11296E+08
-.11398E+08
-.11342E+08
-.11434E+08
-.11473E+08
-.11171E+08
-.11217E+08
-.11141E+08
-.11170E+08
-.11217E+08
-.11091E+08
-.11088E+08
-.11133E+08
-.11155E+08
-.11137E+08
-.11180E+08
-.11109E+08
-.11471E+08
-.10844E+08
</weights>
</event>
<event>
      6  10001  1.11453E+07  8.94427E-01 -1.00000E+00  6.02122E-01
      -2    -1     0     0     0   502  0.000000000E+00  0.000000000E+00  4.981031064E-02  4.981031064E-02  0.000000000E+00  0.00000E+00  9.000E+00
       2    -1     0     0   501     0  0.000000000E+00  0.000000000E+00 -1.725719903E+02  1.725719903E+02  0.000000000E+00  0.00000E+00  9.000E+00
      23     2     1     2     0     0 -1.085673500E-01  5.526607547E-01 -3.343230610E+01  3.353078638E+01  2.505458722E+00  0.00000E+00  9.000E+00
      11     1     3     3     0     0  1.043183361E+00  8.574004922E-02 -2.314920244E+01  2.317285388E+01  5.110000000E-04  0.00000E+00  9.000E+00
     -11     1     3     3     0     0 -1.151750711E+00  4.669207055E-01 -1.028310366E+01  1.035793250E+01  5.110000000E-04  0.00000E+00  9.000E+00
      21     1     1     2   501   502  1.085673500E-01 -5.526607547E-01 -1.390898739E+02  1.390910142E+02  0.000000000E+00  0.00000E+00  9.000E+00
#rwgt            1           8   239781433.58169299                3    12137597           0
<weights>
0.11132E+08
0.11155E+08
0.11278E+08
0.13275E+08
0.90385E+07
0.93536E+07
0.13890E+08
0.11119E+08
0.11143E+08
0.11158E+08
0.11158E+08
0.11106E+08
0.11169E+08
0.11160E+08
0.11158E+08
0.11266E+08
0.10910E+08
0.11178E+08
0.10991E+08
0.10979E+08
0.11183E+08
0.11091E+08
0.11116E+08
0.11182E+08
0.11026E+08
0.11092E+08
0.11143E+08
0.11063E+08
0.11128E+08
0.11095E+08
0.11114E+08
0.11066E+08
0.11187E+08
0.11176E+08
0.11066E+08
0.11126E+08
0.11132E+08
0.11154E+08
0.11111E+08
0.11132E+08
0.11128E+08
0.11159E+08
0.11102E+08
0.11101E+08
0.11160E+08
</weights>
</event>
<event>
      6  10001  1.11453E+07  8.94427E-01 -1.00000E+00  5.97896E-01
      -2    -1     0     0     0   502  0.000000000E+00  0.000000000E+00  4.126189587E-02  4.126189587E-02  0.000000000E+00  0.00000E+00  9.000E+00
      21    -1     0     0   502   501  0.000000000E+00  0.000000000E+00 -6.298984063E+01  6.298984063E+01  0.000000000E+00  0.00000E+00  9.000E+00
      23     2     1     2     0     0 -6.782991954E-01 -8.346196352E-01 -4.221117100E+01  4.226582479E+01  1.860190481E+00  0.00000E+00  9.000E+00
      11     1     3     3     0     0 -8.461860998E-01  3.414590924E-03 -3.395308911E+01  3.396363207E+01  5.110000000E-04  0.00000E+00  9.000E+00
     -11     1     3     3     0     0  1.678869043E-01 -8.380342261E-01 -8.258081884E+00  8.302192725E+00  5.110000000E-04  0.00000E+00  9.000E+00
      -2     1     1     2     0   501  6.782991954E-01  8.346196352E-01 -2.073740774E+01  2.076527774E+01  0.000000000E+00  0.00000E+00  9.000E+00
#rwgt            1           7   445435.15348091151                3    12139952           0
<weights>
0.11145E+08
0.12017E+08
0.10200E+08
0.12109E+08
0.99223E+07
0.10911E+08
0.11238E+08
0.11296E+08
0.10997E+08
0.10766E+08
0.10917E+08
0.10909E+08
0.11081E+08
0.10874E+08
0.10907E+08
0.11223E+08
0.11113E+08
0.11361E+08
0.11382E+08
0.11372E+08
0.11351E+08
0.11361E+08
0.11433E+08
0.11159E+08
0.11457E+08
0.11369E+08
0.11024E+08
0.11317E+08
0.11208E+08
0.11269E+08
0.11379E+08
0.11066E+08
0.11299E+08
0.11190E+08
0.11103E+08
0.11375E+08
0.10941E+08
0.10614E+08
0.11680E+08
0.11079E+08
0.11206E+08
0.11147E+08
0.11144E+08
0.11443E+08
0.10850E+08
</weights>
</event>
<event>
      6  10001 -1.11453E+07  8.94427E-01 -1.00000E+00  1.64001E-01
      21    -1     0     0   502   501  0.000000000E+00  0.000000000E+00  1.617297935E-02  1.617297935E-02  0.000000000E+00  0.00000E+00  9.000E+00
       2    -1     0     0   501     0  0.000000000E+00  0.000000000E+00 -1.044414282E+02  1.044414282E+02  0.000000000E+00  0.00000E+00  9.000E+00
      23     2     1     2     0     0  2.468997762E-01  4.691974416E-01 -8.349109317E+01  8.351672616E+01  1.999951079E+00  0.00000E+00  9.000E+00
      11     1     3     3     0     0 -6.687640508E-01 -2.260729773E-01 -1.567559212E+01  1.569147995E+01  5.110000000E-04  0.00000E+00  9.000E+00
     -11     1     3     3     0     0  9.156638270E-01  6.952704189E-01 -6.781550104E+01  6.782524621E+01  5.110000000E-04  0.00000E+00  9.000E+00
       2     1     1     2   502     0 -2.468997762E-01 -4.691974416E-01 -2.093416201E+01  2.094087498E+01  0.000000000E+00  0.00000E+00  9.000E+00
#rwgt            1          17  -9870217.6619604491                3    12190842           0
<weights>
-.11145E+08
-.12286E+08
-.98814E+07
-.14932E+08
-.79175E+07
-.91702E+07
-.13910E+08
-.11150E+08
-.11140E+08
-.11153E+08
-.11167E+08
-.11156E+08
-.11125E+08
-.11168E+08
-.11168E+08
-.11194E+08
-.11038E+08
-.11096E+08
-.11139E+08
-.11143E+08
-.11093E+08
-.11116E+08
-.11116E+08
-.11227E+08
-.11021E+08
-.11068E+08
-.11178E+08
-.11193E+08
-.10999E+08
-.11125E+08
-.11112E+08
-.11119E+08
-.11160E+08
-.11104E+08
-.11192E+08
-.11136E+08
-.11149E+08
-.11130E+08
-.11169E+08
-.11105E+08
-.11176E+08
-.11191E+08
-.11097E+08
-.11122E+08
-.11164E+08
</weights>
</event>
<event>
      6  10001 -1.11453E+07  8.94427E-01 -1.00000E+00  6.07204E-01
      21    -1     0     0   502   501  0.000000000E+00  0.000000000E+00  2.756593632E-02  2.756593632E-02  0.000000000E+00  0.00000E+00  9.000E+00
       3    -1     0     0   501     0  0.000000000E+00  0.000000000E+00 -2.177287275E+01  2.177287275E+01  0.000000000E+00  0.00000E+00  9.000E+00
      23     2     1     2     0     0  8.138568426E-02  3.979161593E-01 -1.662253585E+01  1.666159220E+01  1.065361694E+00  0.00000E+00  9.000E+00
      11     1     3     3     0     0 -1.158517315E-01 -3.434360570E-01 -6.446356018E+00  6.456537471E+00  5.110000000E-04  0.00000E+00  9.000E+00
     -11     1     3     3     0     0  1.972374157E-01  7.413522162E-01 -1.017617984E+01  1.020505473E+01  5.110000000E-04  0.00000E+00  9.000E+00
       3     1     1     2   502     0 -8.138568426E-02 -3.979161593E-01 -5.122770964E+00  5.138846490E+00  0.000000000E+00  0.00000E+00  9.000E+00
#rwgt            1          18  -55567.268060030518                3    12191751           0
<weights>
-.11145E+08
0.45595E+07
-.23684E+08
-.21833E+08
-.36725E+07
0.80662E+07
-.40369E+08
-.11147E+08
-.11155E+08
-.11876E+08
-.11685E+08
-.10529E+08
-.12574E+08
-.11879E+08
-.11850E+08
-.95706E+07
-.13399E+08
-.11373E+08
-.90579E+07
-.89215E+07
-.11592E+08
-.10535E+08
-.98896E+07
-.85550E+07
-.13345E+08
-.18483E+08
-.27224E+07
-.12927E+08
-.72595E+07
-.10601E+08
-.10093E+08
-.10695E+08
-.11353E+08
-.10967E+08
-.11249E+08
-.11067E+08
-.11203E+08
-.10792E+08
-.11921E+08
-.10777E+08
-.11505E+08
-.10737E+08
-.11582E+08
-.10377E+08
-.11815E+08
</weights>
</event>
<event>
      7  10001  1.11453E+07  2.45495E+00 -1.00000E+00  3.19736E-01
      -2    -1     0     0     0   502  0.000000000E+00  0.000000000E+00  5.813962747E+00  5.813962747E+00  0.000000000E+00  0.00000E+00  9.000E+00
      21    -1     0     0   511   501  0.000000000E+00  0.000000000E+00 -4.882848508E+01  4.882848508E+01  0.000000000E+00  0.00000E+00  9.000E+00
      23     2     1     2     0     0 -1.466269577E+00  7.331647454E-01 -1.237041677E-01  1.941301576E+00  1.032410805E+00  0.00000E+00  9.000E+00
      11     1     3     3     0     0 -3.875099502E-01  4.623482566E-01  3.877237475E-01  7.171191236E-01  5.110000000E-04  0.00000E+00  9.000E+00
     -11     1     3     3     0     0 -1.078759627E+00  2.708164889E-01 -5.114279152E-01  1.224182452E+00  5.110000000E-04  0.00000E+00  9.000E+00
      -2     1     1     2     0   501  3.607252832E+00  4.680741625E-01  4.194402288E+00  5.551970549E+00  0.000000000E+00  0.00000E+00  9.000E+00
      21     1     1     2   511   502 -2.140983255E+00 -1.201238908E+00 -4.708522045E+01  4.714917570E+01  9.536743164E-07  0.00000E+00  9.000E+00
#rwgt            1           7   383790.19928721234                3    12198465           0
<weights>
0.11145E+08
0.12315E+08
0.10046E+08
0.11740E+08
0.10101E+08
0.11329E+08
0.10596E+08
0.11194E+08
0.11091E+08
0.10751E+08
0.10723E+08
0.10915E+08
0.10975E+08
0.10763E+08
0.10739E+08
0.11252E+08
0.11235E+08
0.11558E+08
0.11576E+08
0.11569E+08
0.11526E+08
0.11602E+08
0.11620E+08
0.11432E+08
0.11395E+08
0.11357E+08
0.11195E+08
0.11529E+08
0.11424E+08
0.11581E+08
0.11616E+08
0.11207E+08
0.11223E+08
0.11123E+08
0.11200E+08
0.11237E+08
0.11074E+08
0.11178E+08
0.11006E+08
0.11181E+08
0.11115E+08
0.11193E+08
0.11096E+08
0.11599E+08
0.10730E+08
</weights>
</event>
<event>
      6  10001 -1.11453E+07  8.94427E-01 -1.00000E+00  1.44463E-01
       2    -1     0     0   501     0  0.000000000E+00  0.000000000E+00  9.575137993E+01  9.575137993E+01  0.000000000E+00  0.00000E+00  9.000E+00
      21    -1     0     0   502   501  0.000000000E+00  0.000000000E+00 -1.323545440E-02  1.323545440E-02  0.000000000E+00  0.00000E+00  9.000E+00
      23     2     1     2     0     0 -4.696856156E-01  2.389620627E-01  7.688887429E+01  7.690798010E+01  1.631167420E+00  0.00000E+00  9.000E+00
      11     1     3     3     0     0  5.575060103E-01 -1.089706288E-01  3.701962682E+01  3.702398490E+01  5.110000000E-04  0.00000E+00  9.000E+00
     -11     1     3     3     0     0 -1.027191626E+00  3.479326915E-01  3.986924746E+01  3.988399520E+01  5.110000000E-04  0.00000E+00  9.000E+00
       2     1     1     2   502     0  4.696856156E-01 -2.389620627E-01  1.884927019E+01  1.885663528E+01  0.000000000E+00  0.00000E+00  9.000E+00
#rwgt            1          24  -9064411.3412871156                3    12221081           0
<weights>
-.11145E+08
-.12358E+08
-.97573E+07
-.15026E+08
-.78183E+07
-.91664E+07
-.13909E+08
-.11174E+08
-.11117E+08
-.10828E+08
-.10820E+08
-.10964E+08
-.11010E+08
-.10847E+08
-.10831E+08
-.11225E+08
-.11207E+08
-.11455E+08
-.11494E+08
-.11483E+08
-.11432E+08
-.11493E+08
-.11513E+08
-.11399E+08
-.11329E+08
-.11286E+08
-.11331E+08
-.11428E+08
-.11365E+08
-.11470E+08
-.11505E+08
-.11181E+08
-.11217E+08
-.11138E+08
-.11176E+08
-.11211E+08
-.11098E+08
-.11123E+08
-.11093E+08
-.11164E+08
-.11130E+08
-.11184E+08
-.11105E+08
-.11498E+08
-.10820E+08
</weights>
</event>
<event>
      6  10001 -1.11453E+07  8.94427E-01 -1.00000E+00  3.78835E-01
      21    -1     0     0   502   501  0.000000000E+00  0.000000000E+00  2.081273357E-02  2.081273357E-02  0.000000000E+00  0.00000E+00  9.000E+00
       2    -1     0     0   501     0  0.000000000E+00  0.000000000E+00 -1.718285564E+02  1.718285564E+02  0.000000000E+00  0.00000E+00  9.000E+00
      23     2     1     2     0     0  1.360028503E+00  5.546405610E-01 -9.815539129E+01  9.818237303E+01  1.772069894E+00  0.00000E+00  9.000E+00
      11     1     3     3     0     0  1.230013596E+00  7.170301101E-01 -9.685370952E+01  9.686417353E+01  5.110000000E-04  0.00000E+00  9.000E+00
     -11     1     3     3     0     0  1.300149071E-01 -1.623895491E-01 -1.301681765E+00  1.318199500E+00  5.110000000E-04  0.00000E+00  9.000E+00
       2     1     1     2   502     0 -1.360028503E+00 -5.546405610E-01 -7.365235233E+01  7.366699605E+01  0.000000000E+00  0.00000E+00  9.000E+00
#rwgt            1          17  -7320701.2004639003                3    12227683           0
<weights>
-.11145E+08
-.12427E+08
-.96992E+07
-.15104E+08
-.77715E+07
-.91702E+07
-.13910E+08
-.11133E+08
-.11156E+08
-.11171E+08
-.11172E+08
-.11123E+08
-.11178E+08
-.11174E+08
-.11172E+08
-.11274E+08
-.10930E+08
-.11183E+08
-.11016E+08
-.11005E+08
-.11187E+08
-.11104E+08
-.11127E+08
-.11200E+08
-.11036E+08
-.11100E+08
-.11160E+08
-.11087E+08
-.11129E+08
-.11109E+08
-.11125E+08
-.11082E+08
-.11197E+08
-.11181E+08
-.11090E+08
-.11140E+08
-.11145E+08
-.11166E+08
-.11125E+08
-.11142E+08
-.11144E+08
-.11174E+08
-.11114E+08
-.11114E+08
-.11173E+08
</weights>
</event>
<event>
      6  10001 -1.11453E+07  8.94427E-01 -1.00000E+00  3.58646E-01
      -2    -1     0     0     0   502  0.000000000E+00  0.000000000E+00  4.558527891E+02  4.558527891E+02  0.000000000E+00  0.00000E+00  9.000E+00
      21    -1     0     0   502   501  0.000000000E+00  0.000000000E+00 -3.644227826E-03  3.644227826E-03  0.000000000E+00  0.00000E+00  9.000E+00
      23     2     1     2     0     0 -9.908087931E-01 -1.131922283E-01  3.068182296E+02  3.068221815E+02  1.196045039E+00  0.00000E+00  9.000E+00
      11     1     3     3     0     0 -9.670181996E-01 -2.005749843E-01  1.241065656E+02  1.241104950E+02  5.110000000E-04  0.00000E+00  9.000E+00
     -11     1     3     3     0     0 -2.379059350E-02  8.738275597E-02  1.827116640E+02  1.827116864E+02  5.110000000E-04  0.00000E+00  9.000E+00
      -2     1     1     2     0   501  9.908087931E-01  1.131922283E-01  1.490309153E+02  1.490342519E+02  0.000000000E+00  0.00000E+00  9.000E+00
#rwgt            1           7  -1232868.7111136012                3    12228266           0
<weights>
-.11145E+08
-.11579E+08
-.10582E+08
-.14076E+08
-.84793E+07
-.91686E+07
-.13910E+08
-.11184E+08
-.11106E+08
-.10848E+08
-.10850E+08
-.10972E+08
-.11026E+08
-.10870E+08
-.10859E+08
-.11222E+08
-.11191E+08
-.11426E+08
-.11460E+08
-.11451E+08
-.11405E+08
-.11457E+08
-.11484E+08
-.11357E+08
-.11326E+08
-.11274E+08
-.11273E+08
-.11395E+08
-.11341E+08
-.11431E+08
-.11470E+08
-.11171E+08
-.11216E+08
-.11141E+08
-.11170E+08
-.11217E+08
-.11090E+08
-.11085E+08
-.11129E+08
-.11155E+08
-.11138E+08
-.11179E+08
-.11110E+08
-.11468E+08
-.10846E+08
</weights>
</event>
<event>
      7  10001  1.11453E+07  1.56712E+01 -1.00000E+00  1.75358E-01
       2    -1     0     0   501     0  0.000000000E+00  0.000000000E+00  7.398834952E+02  7.398834952E+02  0.000000000E+00  0.00000E+00  9.000E+00
      21    -1     0     0   502   501  0.000000000E+00  0.000000000E+00 -9.280679708E-02  9.280679708E-02  0.000000000E+00  0.00000E+00  9.000E+00
      23     2     1     2     0     0 -1.437417067E+00 -3.626570142E-01  3.161462150E+02  3.161514890E+02  1.066325266E+00  0.00000E+00  9.000E+00
      11     1     3     3     0     0 -5.705800722E-01  3.503035596E-01  9.010125000E+01  9.010373758E+01  5.110000000E-04  0.00000E+00  9.000E+00
     -11     1     3     3     0     0 -8.668369945E-01 -7.129605738E-01  2.260449650E+02  2.260477514E+02  5.110000000E-04  0.00000E+00  9.000E+00
       2     1     1     2   511     0 -3.347178419E+00 -2.767830349E+00  3.150357125E+02  3.150656513E+02  0.000000000E+00  0.00000E+00  9.000E+00
      21     1     1     2   502   511  4.784595486E+00  3.130487363E+00  1.086087609E+02  1.087591616E+02  1.907348633E-06  0.00000E+00  9.000E+00
#rwgt            2         248   68406886.715356931                3    12234103           0
<weights>
0.11145E+08
0.10352E+08
0.11858E+08
0.12581E+08
0.95016E+07
0.91702E+07
0.13910E+08
0.11177E+08
0.11113E+08
0.10822E+08
0.10813E+08
0.10961E+08
0.11007E+08
0.10840E+08
0.10823E+08
0.11227E+08
0.11210E+08
0.11464E+08
0.11500E+08
0.11490E+08
0.11440E+08
0.11502E+08
0.11522E+08
0.11401E+08
0.11333E+08
0.11290E+08
0.11309E+08
0.11436E+08
0.11371E+08
0.11480E+08
0.11515E+08
0.11184E+08
0.11217E+08
0.11137E+08
0.11178E+08
0.11212E+08
0.11097E+08
0.11132E+08
0.11084E+08
0.11167E+08
0.11127E+08
0.11185E+08
0.11104E+08
0.11506E+08
0.10813E+08
</weights>
</event>
<event>
      6  10001 -1.11453E+07  8.94427E-01 -1.00000E+00  3.18708E-01
       3    -1     0     0   501     0  0.000000000E+00  0.000000000E+00  1.281096966E+02  1.281096966E+02  0.000000000E+00  0.00000E+00  9.000E+00
      21    -1     0     0   502   501  0.000000000E+00  0.000000000E+00 -2.263250214E-02  2.263250214E-02  0.000000000E+00  0.00000E+00  9.000E+00
      23     2     1     2     0     0  7.683859484E-02  2.748423168E-01  1.270378608E+02  1.270450067E+02  1.316892378E+00  0.00000E+00  9.000E+00
      11     1     3     3     0     0  6.465741582E-01 -9.456782082E-02  5.288017190E+01  5.288420919E+01  5.110000000E-04  0.00000E+00  9.000E+00
     -11     1     3     3     0     0 -5.697355634E-01  3.694101376E-01  7.415768887E+01  7.416079747E+01  5.110000000E-04  0.00000E+00  9.000E+00
       3     1     1     2   502     0 -7.683859484E-02 -2.748423168E-01  1.049203288E+00  1.087322403E+00  0.000000000E+00  0.00000E+00  9.000E+00
#rwgt            1          26  -1773455.4667687097                3    12236501           0
<weights>
-.11145E+08
-.11930E+08
-.10150E+08
-.14504E+08
-.81329E+07
-.91678E+07
-.13910E+08
-.11175E+08
-.11116E+08
-.10826E+08
-.10818E+08
-.10963E+08
-.11009E+08
-.10845E+08
-.10828E+08
-.11226E+08
-.11208E+08
-.11458E+08
-.11497E+08
-.11486E+08
-.11435E+08
-.11496E+08
-.11516E+08
-.11402E+08
-.11329E+08
-.11286E+08
-.11332E+08
-.11430E+08
-.11367E+08
-.11473E+08
-.11508E+08
-.11182E+08
-.11217E+08
-.11138E+08
-.11177E+08
-.11211E+08
-.11098E+08
-.11127E+08
-.11090E+08
-.11165E+08
-.11129E+08
-.11184E+08
-.11105E+08
-.11501E+08
-.10818E+08
</weights>
</event>
<event>
      6  10001 -1.11453E+07  8.94427E-01 -1.00000E+00  2.56791E-01
      -2    -1     0     0     0   502  0.000000000E+00  0.000000000E+00  5.747987871E+02  5.747987871E+02  0.000000000E+00  0.00000E+00  9.000E+00
      21    -1     0     0   502   501  0.000000000E+00  0.000000000E+00 -1.313765877E-02  1.313765877E-02  0.000000000E+00  0.00000E+00  9.000E+00
      23     2     1     2     0     0 -3.411368383E-01  8.034133790E-01  5.587983748E+02  5.588008411E+02  1.412288911E+00  0.00000E+00  9.000E+00
      11     1     3     3     0     0 -5.423083131E-01 -2.430819960E-01  2.051078564E+02  2.051087174E+02  5.110000000E-04  0.00000E+00  9.000E+00
     -11     1     3     3     0     0  2.011714748E-01  1.046495375E+00  3.536905184E+02  3.536921238E+02  5.110000000E-04  0.00000E+00  9.000E+00
      -2     1     1     2     0   501  3.411368383E-01 -8.034133790E-01  1.598727466E+01  1.601108361E+01  0.000000000E+00  0.00000E+00  9.000E+00
#rwgt            1           7  -1339602.3084131563                3    12237026           0
<weights>
-.11145E+08
-.11982E+08
-.99739E+07
-.14569E+08
-.79918E+07
-.91666E+07
-.13909E+08
-.11182E+08
-.11108E+08
-.10856E+08
-.10862E+08
-.10975E+08
-.11032E+08
-.10881E+08
-.10870E+08
-.11221E+08
-.11184E+08
-.11416E+08
-.11444E+08
-.11434E+08
-.11395E+08
-.11445E+08
-.11467E+08
-.11350E+08
-.11318E+08
-.11268E+08
-.11280E+08
-.11384E+08
-.11332E+08
-.11418E+08
-.11457E+08
-.11168E+08
-.11215E+08
-.11142E+08
-.11168E+08
-.11217E+08
-.11090E+08
-.11081E+08
-.11149E+08
-.11151E+08
-.11141E+08
-.11178E+08
-.11111E+08
-.11456E+08
-.10857E+08
</weights>
</event>
<event>
      7  10001  1.11453E+07  6.38922E+00 -1.00000E+00  2.20322E-01
      21    -1     0     0   502   501  0.000000000E+00  0.000000000E+00  8.601557790E+00  8.601557790E+00  0.000000000E+00  0.00000E+00  9.000E+00
       4    -1     0     0   501     0  0.000000000E+00  0.000000000E+00 -1.955031152E+00  1.955031152E+00  0.000000000E+00  0.00000E+00  9.000E+00
      23     2     1     2     0     0  1.100104182E+00 -4.591465425E-01  2.705829407E-01  1.733479626E+00  1.229102000E+00  0.00000E+00  9.000E+00
      11     1     3     3     0     0 -4.170643769E-02  2.905557116E-01 -1.132724087E-01  3.146314482E-01  5.110000000E-04  0.00000E+00  9.000E+00
     -11     1     3     3     0     0  1.141810619E+00 -7.497022541E-01  3.838553494E-01  1.418848177E+00  5.110000000E-04  0.00000E+00  9.000E+00
       4     1     1     2   511     0 -2.091664761E+00 -8.981026682E-01  4.916469768E-02  2.276854638E+00  0.000000000E+00  0.00000E+00  9.000E+00
      21     1     1     2   502   511  9.915605795E-01  1.357249211E+00  6.326778999E+00  6.546254678E+00  2.230201594E-07  0.00000E+00  9.000E+00
#rwgt            2         195   1260504.8436751484                3    12237970           0
<weights>
0.11145E+08
0.11237E+08
0.10788E+08
0.13657E+08
0.86441E+07
0.91702E+07
0.13910E+08
0.11206E+08
0.11080E+08
0.10817E+08
0.10814E+08
0.10948E+08
0.11022E+08
0.10837E+08
0.10824E+08
0.11229E+08
0.11211E+08
0.11473E+08
0.11477E+08
0.11474E+08
0.11447E+08
0.11500E+08
0.11523E+08
0.11330E+08
0.11378E+08
0.11347E+08
0.11100E+08
0.11451E+08
0.11344E+08
0.11474E+08
0.11512E+08
0.11182E+08
0.11217E+08
0.11133E+08
0.11181E+08
0.11251E+08
0.11057E+08
0.11103E+08
0.11099E+08
0.11164E+08
0.11131E+08
0.11174E+08
0.11116E+08
0.11508E+08
0.10811E+08
</weights>
</event>
<event>
      6  10001  1.11453E+07  8.94427E-01 -1.00000E+00  6.07625E-01
      -2    -1     0     0     0   502  0.000000000E+00  0.000000000E+00  1.703775335E-01  1.703775335E-01  0.000000000E+00  0.00000E+00  9.000E+00
      21    -1     0     0   502   501  0.000000000E+00  0.000000000E+00 -1.890724482E+01  1.890724482E+01  0.000000000E+00  0.00000E+00  9.000E+00
      23     2     1     2     0     0 -3.047544679E-01  2.745520927E-02 -1.527951921E+01  1.560676010E+01  3.164431133E+00  0.00000E+00  9.000E+00
      11     1     3     3     0     0  1.626006705E-01 -7.677020863E-01 -1.403908810E+01  1.406100282E+01  5.110000000E-04  0.00000E+00  9.000E+00
     -11     1     3     3     0     0 -4.673551384E-01  7.951572956E-01 -1.240431109E+00  1.545757273E+00  5.110000000E-04  0.00000E+00  9.000E+00
      -2     1     1     2     0   501  3.047544679E-01 -2.745520927E-02 -3.457348082E+00  3.470862261E+00  0.000000000E+00  0.00000E+00  9.000E+00
#rwgt            1           7   177609.15008446496                3    12238278           0
<weights>
0.11145E+08
0.23390E+08
-.93023E+06
0.87581E+07
0.12156E+08
0.22492E+08
-.65401E+07
0.11633E+08
0.10638E+08
0.88881E+07
0.89801E+07
0.10065E+08
0.10063E+08
0.89159E+07
0.89537E+07
0.11530E+08
0.11938E+08
0.13294E+08
0.13754E+08
0.13754E+08
0.13121E+08
0.13504E+08
0.13998E+08
0.12201E+08
0.13077E+08
0.12850E+08
0.10618E+08
0.13304E+08
0.12422E+08
0.13328E+08
0.13625E+08
0.11325E+08
0.11698E+08
0.11150E+08
0.11277E+08
0.11851E+08
0.10551E+08
0.10632E+08
0.10694E+08
0.11515E+08
0.10820E+08
0.11364E+08
0.10918E+08
0.13614E+08
0.88986E+07
</weights>
</event>
<event>
      7  10001  1.11453E+07  1.38733E+00 -1.00000E+00  4.50523E-01
      21    -1     0     0   502   501  0.000000000E+00  0.000000000E+00  3.603664653E-01  3.603664653E-01  0.000000000E+00  0.00000E+00  9.000E+00
       4    -1     0     0   501     0  0.000000000E+00  0.000000000E+00 -4.100810808E+00  4.100810808E+00  0.000000000E+00  0.00000E+00  9.000E+00
      23     2     1     2     0     0 -3.535492842E-01 -3.079837718E-02 -3.423405290E+00  3.612567209E+00  1.097721469E+00  0.00000E+00  9.000E+00
      11     1     3     3     0     0 -5.838486336E-01  1.635461936E-01 -3.142977322E+00  3.200926943E+00  5.110000000E-04  0.00000E+00  9.000E+00
     -11     1     3     3     0     0  2.302993493E-01 -1.943445708E-01 -2.804279680E-01  4.116402663E-01  5.110000000E-04  0.00000E+00  9.000E+00
       4     1     1     2   511     0  1.745870786E-01 -8.446538924E-02 -5.196922646E-01  5.547027131E-01  0.000000000E+00  0.00000E+00  9.000E+00
      21     1     1     2   502   511  1.789622057E-01  1.152637664E-01  2.026532119E-01  2.939073514E-01  2.775278767E-08  0.00000E+00  9.000E+00
#rwgt            2         195   10162013.092520706                3    12296857           0
<weights>
0.11145E+08
0.12096E+08
0.98848E+07
0.14701E+08
0.79202E+07
0.91702E+07
0.13910E+08
0.11214E+08
0.11072E+08
0.10819E+08
0.10826E+08
0.10946E+08
0.11032E+08
0.10842E+08
0.10835E+08
0.11225E+08
0.11209E+08
0.11461E+08
0.11468E+08
0.11466E+08
0.11436E+08
0.11484E+08
0.11516E+08
0.11305E+08
0.11391E+08
0.11363E+08
0.11067E+08
0.11443E+08
0.11324E+08
0.11453E+08
0.11496E+08
0.11173E+08
0.11222E+08
0.11135E+08
0.11177E+08
0.11265E+08
0.11042E+08
0.11060E+08
0.11131E+08
0.11158E+08
0.11136E+08
0.11168E+08
0.11122E+08
0.11498E+08
0.10820E+08
</weights>
</event>
<event>
      7  10001  1.11453E+07  9.65612E-01 -1.00000E+00  5.76299E-01
      21    -1     0     0   502   512  0.000000000E+00  0.000000000E+00  4.258798394E+02  4.258798394E+02  0.000000000E+00  0.00000E+00  9.000E+00
       1    -1     0     0   501     0  0.000000000E+00  0.000000000E+00 -1.279186203E+01  1.279186203E+01  0.000000000E+00  0.00000E+00  9.000E+00
      23     2     1     2     0     0 -4.257171508E-01  2.109999976E-01 -1.222381559E+01  1.318869745E+01  4.928926530E+00  0.00000E+00  9.000E+00
      11     1     3     3     0     0  1.827570117E+00  1.915742855E-03 -1.966055437E+00  2.684285836E+00  5.110000000E-04  0.00000E+00  9.000E+00
     -11     1     3     3     0     0 -2.253287268E+00  2.090842547E-01 -1.025776015E+01  1.050441161E+01  5.110000000E-04  0.00000E+00  9.000E+00
       1     1     1     2   502     0 -1.151604754E-01  5.889108371E-01  9.732968706E-01  1.143409248E+00  0.000000000E+00  0.00000E+00  9.000E+00
      21     1     1     2   501   512  5.408776263E-01 -7.999108347E-01  4.243384960E+02  4.243395947E+02  0.000000000E+00  0.00000E+00  9.000E+00
#rwgt            1          16   716688.28722591489                3    12297469           0
<weights>
0.11145E+08
0.14305E+08
0.80034E+07
0.11912E+08
0.10072E+08
0.12913E+08
0.81640E+07
0.11089E+08
0.11189E+08
0.10825E+08
0.10756E+08
0.10843E+08
0.11065E+08
0.10804E+08
0.10791E+08
0.11187E+08
0.11197E+08
0.11699E+08
0.11220E+08
0.11140E+08
0.11710E+08
0.11512E+08
0.11602E+08
0.11322E+08
0.11442E+08
0.11640E+08
0.10898E+08
0.11296E+08
0.11487E+08
0.11476E+08
0.11556E+08
0.11146E+08
0.11260E+08
0.11379E+08
0.10850E+08
0.10852E+08
0.11459E+08
0.11106E+08
0.11028E+08
0.11153E+08
0.11127E+08
0.11293E+08
0.10989E+08
0.11531E+08
0.10795E+08
</weights>
</event>
<event>
      6  10001 -1.11453E+07  8.94427E-01 -1.00000E+00  1.96333E-01
       1    -1     0     0   501     0  0.000000000E+00  0.000000000E+00  9.115322444E+01  9.115322444E+01  0.000000000E+00  0.00000E+00  9.000E+00
      21    -1     0     0   502   501  0.000000000E+00  0.000000000E+00 -4.806014906E-03  4.806014906E-03  0.000000000E+00  0.00000E+00  9.000E+00
      23     2     1     2     0     0 -2.499009691E-01  8.205623256E-02  7.316066097E+01  7.316835002E+01  1.027593325E+00  0.00000E+00  9.000E+00
      11     1     3     3     0     0  1.639915994E-01 -9.658083062E-02  2.897865534E+00  2.904108471E+00  5.110000000E-04  0.00000E+00  9.000E+00
     -11     1     3     3     0     0 -4.138925685E-01  1.786370632E-01  7.026279543E+01  7.026424155E+01  5.110000000E-04  0.00000E+00  9.000E+00
       1     1     1     2   502     0  2.499009691E-01 -8.205623256E-02  1.798775745E+01  1.798968043E+01  0.000000000E+00  0.00000E+00  9.000E+00
#rwgt            1          22  -2763872.0412467089                3    12316711           0
<weights>
-.11145E+08
-.11832E+08
-.10345E+08
-.14383E+08
-.82893E+07
-.91682E+07
-.13910E+08
-.11183E+08
-.11108E+08
-.10846E+08
-.10848E+08
-.10970E+08
-.11025E+08
-.10868E+08
-.10857E+08
-.11222E+08
-.11193E+08
-.11429E+08
-.11463E+08
-.11453E+08
-.11408E+08
-.11461E+08
-.11486E+08
-.11360E+08
-.11328E+08
-.11279E+08
-.11280E+08
-.11400E+08
-.11341E+08
-.11435E+08
-.11473E+08
-.11172E+08
-.11216E+08
-.11141E+08
-.11171E+08
-.11218E+08
-.11090E+08
-.11089E+08
-.11127E+08
-.11156E+08
-.11137E+08
-.11179E+08
-.11110E+08
-.11471E+08
-.10844E+08
</weights>
</event>
<event>
      6  10001 -1.11453E+07  8.94427E-01 -1.00000E+00  3.65259E-01
      21    -1     0     0   502   501  0.000000000E+00  0.000000000E+00  2.367565430E-02  2.367565430E-02  0.000000000E+00  0.00000E+00  9.000E+00
       2    -1     0     0   501     0  0.000000000E+00  0.000000000E+00 -9.503984028E+01  9.503984028E+01  0.000000000E+00  0.00000E+00  9.000E+00
      23     2     1     2     0     0 -3.437832899E-01  8.191453982E-01 -8.128455696E+01  8.130320216E+01  1.497429414E+00  0.00000E+00  9.000E+00
      11     1     3     3     0     0 -9.354726562E-01  4.085017030E-01 -4.811497670E+01  4.812580353E+01  5.110000000E-04  0.00000E+00  9.000E+00
     -11     1     3     3     0     0  5.916893663E-01  4.106436952E-01 -3.316958026E+01  3.317739863E+01  5.110000000E-04  0.00000E+00  9.000E+00
       2     1     1     2   502     0  3.437832899E-01 -8.191453982E-01 -1.373160767E+01  1.376031378E+01  0.000000000E+00  0.00000E+00  9.000E+00
#rwgt            1          17  -13807011.804212896                3    12318352           0
<weights>
-.11145E+08
-.13095E+08
-.89140E+07
-.15916E+08
-.71424E+07
-.91702E+07
-.13910E+08
-.11155E+08
-.11135E+08
-.11146E+08
-.11164E+08
-.11160E+08
-.11114E+08
-.11164E+08
-.11164E+08
-.11178E+08
-.11061E+08
-.11084E+08
-.11164E+08
-.11170E+08
-.11079E+08
-.11121E+08
-.11117E+08
-.11231E+08
-.11025E+08
-.11067E+08
-.11179E+08
-.11213E+08
-.10979E+08
-.11130E+08
-.11113E+08
-.11125E+08
-.11155E+08
-.11093E+08
-.11208E+08
-.11134E+08
-.11151E+08
-.11118E+08
-.11182E+08
-.11099E+08
-.11181E+08
-.11194E+08
-.11093E+08
-.11127E+08
-.11158E+08
</weights>
</event>
<event>
      7  10001  1.11453E+07  1.84235E+00 -1.00000E+00  3.69904E-01
      21    -1     0     0   502   511  0.000000000E+00  0.000000000E+00  1.175559422E+01  1.175559422E+01  0.000000000E+00  0.00000E+00  9.000E+00
       4    -1     0     0   501     0  0.000000000E+00  0.000000000E+00 -3.519205282E+00  3.519205282E+00  0.000000000E+00  0.00000E+00  9.000E+00
      23     2     1     2     0     0  3.271618343E-01 -1.989732850E-01 -6.469230191E-02  1.699862438E+00  1.654908450E+00  0.00000E+00  9.000E+00
      11     1     3     3     0     0  5.105149406E-01 -3.156904057E-01 -7.616839608E-01  9.697673196E-01  5.110000000E-04  0.00000E+00  9.000E+00
     -11     1     3     3     0     0 -1.833531063E-01  1.167171207E-01  6.969916589E-01  7.300951182E-01  5.110000000E-04  0.00000E+00  9.000E+00
       4     1     1     2   502     0  1.444088199E+00  7.058679871E-01 -2.304960796E+00  2.810068436E+00  0.000000000E+00  0.00000E+00  9.000E+00
      21     1     1     2   501   511 -1.771250033E+00 -5.068947021E-01  1.060604203E+01  1.076486863E+01  1.685873940E-07  0.00000E+00  9.000E+00
#rwgt            1          19   126384.65250607631                3    12319089           0
<weights>
0.11145E+08
0.13711E+08
0.10201E+08
0.59968E+07
0.14208E+08
0.15938E+08
0.35212E+07
0.11207E+08
0.11077E+08
0.10650E+08
0.10584E+08
0.10869E+08
0.10913E+08
0.10644E+08
0.10603E+08
0.11264E+08
0.11322E+08
0.11712E+08
0.11709E+08
0.11709E+08
0.11665E+08
0.11769E+08
0.11773E+08
0.11505E+08
0.11487E+08
0.11494E+08
0.11081E+08
0.11708E+08
0.11505E+08
0.11758E+08
0.11781E+08
0.11252E+08
0.11227E+08
0.11107E+08
0.11229E+08
0.11263E+08
0.11052E+08
0.11307E+08
0.10836E+08
0.11233E+08
0.11071E+08
0.11198E+08
0.11091E+08
0.11745E+08
0.10603E+08
</weights>
</event>
<event>
      6  10001 -1.11453E+07  8.94427E-01 -1.00000E+00  5.22961E-01
       1    -1     0     0   501     0  0.000000000E+00  0.000000000E+00  6.961263542E+01  6.961263542E+01  0.000000000E+00  0.00000E+00  9.000E+00
      21    -1     0     0   502   501  0.000000000E+00  0.000000000E+00 -1.694694667E-02  1.694694667E-02  0.000000000E+00  0.00000E+00  9.000E+00
      23     2     1     2     0     0 -1.141760767E-01 -3.341631669E-01  2.587898360E+01  2.591145127E+01  1.247723443E+00  0.00000E+00  9.000E+00
      11     1     3     3     0     0 -1.719642596E-01  2.688080048E-01  1.975633524E+01  1.975891221E+01  5.110000000E-04  0.00000E+00  9.000E+00
     -11     1     3     3     0     0  5.778818283E-02 -6.029711717E-01  6.122648358E+00  6.152539060E+00  5.110000000E-04  0.00000E+00  9.000E+00
       1     1     1     2   502     0  1.141760767E-01  3.341631669E-01  4.371670487E+01  4.371813109E+01  0.000000000E+00  0.00000E+00  9.000E+00
#rwgt            1          22  -262596.54052723659                3    12325021           0
<weights>
-.11145E+08
-.12532E+08
-.95779E+07
-.15238E+08
-.76745E+07
-.91663E+07
-.13909E+08
-.11173E+08
-.11118E+08
-.10825E+08
-.10815E+08
-.10962E+08
-.11007E+08
-.10843E+08
-.10826E+08
-.11226E+08
-.11210E+08
-.11460E+08
-.11501E+08
-.11489E+08
-.11437E+08
-.11499E+08
-.11519E+08
-.11407E+08
-.11329E+08
-.11287E+08
-.11342E+08
-.11433E+08
-.11370E+08
-.11476E+08
-.11511E+08
-.11183E+08
-.11217E+08
-.11138E+08
-.11177E+08
-.11210E+08
-.11100E+08
-.11130E+08
-.11087E+08
-.11166E+08
-.11128E+08
-.11185E+08
-.11104E+08
-.11504E+08
-.10816E+08
</weights>
</event>
<event>
      6  10001 -1.11453E+07  8.94427E-01 -1.00000E+00  2.01924E-01
      -2    -1     0     0     0   502  0.000000000E+00  0.000000000E+00  6.280456117E-03  6.280456117E-03  0.000000000E+00  0.00000E+00  9.000E+00
       2    -1     0     0   501     0  0.000000000E+00  0.000000000E+00 -2.493624742E+02  2.493624742E+02  0.000000000E+00  0.00000E+00  9.000E+00
      23     2     1     2     0     0  4.013573291E-01 -9.432685196E-03 -2.176062264E+02  2.176162492E+02  2.049626610E+00  0.00000E+00  9.000E+00
      11     1     3     3     0     0 -5.277241527E-01  2.574700996E-01 -1.655923957E+02  1.655934368E+02  5.110000000E-04  0.00000E+00  9.000E+00
     -11     1     3     3     0     0  9.290814819E-01 -2.669027848E-01 -5.201383069E+01  5.202281243E+01  5.110000000E-04  0.00000E+00  9.000E+00
      21     1     1     2   501   502 -4.013573291E-01  9.432685196E-03 -3.174996731E+01  3.175250542E+01  3.371747881E-07  0.00000E+00  9.000E+00
#rwgt            1           8  -2912055.5022474932                3    12327078           0
<weights>
-.11145E+08
-.12518E+08
-.95888E+07
-.15214E+08
-.76830E+07
-.91702E+07
-.13910E+08
-.11127E+08
-.11162E+08
-.11172E+08
-.11165E+08
-.11075E+08
-.11232E+08
-.11168E+08
-.11166E+08
-.11325E+08
-.10868E+08
-.11289E+08
-.10891E+08
-.10861E+08
-.11304E+08
-.11103E+08
-.11148E+08
-.11153E+08
-.11086E+08
-.11169E+08
-.11121E+08
-.10969E+08
-.11286E+08
-.11095E+08
-.11149E+08
-.11045E+08
-.11238E+08
-.11287E+08
-.10958E+08
-.11132E+08
-.11154E+08
-.11170E+08
-.11121E+08
-.11181E+08
-.11110E+08
-.11158E+08
-.11131E+08
-.11120E+08
-.11170E+08
</weights>
</event>
<event>
      7  10001  1.11453E+07  2.30582E+00 -1.00000E+00  3.29463E-01
       2    -1     0     0   501     0  0.000000000E+00  0.000000000E+00  1.547876638E+00  1.547876638E+00  0.000000000E+00  0.00000E+00  9.000E+00
      21    -1     0     0   511   501  0.000000000E+00  0.000000000E+00 -3.542619700E+01  3.542619700E+01  0.000000000E+00  0.00000E+00  9.000E+00
      23     2     1     2     0     0 -2.300960771E-02 -6.570057047E-01 -7.220667210E-01  1.453809674E+00  1.077031234E+00  0.00000E+00  9.000E+00
      11     1     3     3     0     0  3.666887406E-01  1.081888958E-01 -1.052942347E-01  3.965508878E-01  5.110000000E-04  0.00000E+00  9.000E+00
     -11     1     3     3     0     0 -3.896983483E-01 -7.651946005E-01 -6.167724863E-01  1.057258786E+00  5.110000000E-04  0.00000E+00  9.000E+00
       2     1     1     2   502     0 -2.203795588E+00  1.255460415E+00 -2.670559055E-01  2.550336194E+00  0.000000000E+00  0.00000E+00  9.000E+00
      21     1     1     2   511   502  2.226805196E+00 -5.984547099E-01 -3.288919774E+01  3.296992777E+01  6.743495762E-07  0.00000E+00  9.000E+00
#rwgt            1          24   565546.10374090669                3    12327347           0
<weights>
0.11145E+08
0.13376E+08
0.89570E+07
0.11753E+08
0.99032E+07
0.12113E+08
0.93927E+07
0.11203E+08
0.11082E+08
0.10697E+08
0.10665E+08
0.10899E+08
0.10939E+08
0.10708E+08
0.10679E+08
0.11253E+08
0.11271E+08
0.11620E+08
0.11641E+08
0.11637E+08
0.11582E+08
0.11672E+08
0.11687E+08
0.11474E+08
0.11428E+08
0.11391E+08
0.11190E+08
0.11599E+08
0.11466E+08
0.11651E+08
0.11686E+08
0.11220E+08
0.11233E+08
0.11129E+08
0.11199E+08
0.11243E+08
0.11071E+08
0.11208E+08
0.10975E+08
0.11204E+08
0.11095E+08
0.11196E+08
0.11093E+08
0.11665E+08
0.10671E+08
</weights>
</event>
<event>
      6  10001 -1.11453E+07  8.94427E-01 -1.00000E+00  2.78714E-01
       2    -1     0     0   501     0  0.000000000E+00  0.000000000E+00  6.602591223E+02  6.602591223E+02  0.000000000E+00  0.00000E+00  9.000E+00
      21    -1     0     0   502   501  0.000000000E+00  0.000000000E+00 -7.091199353E-03  7.091199353E-03  0.000000000E+00  0.00000E+00  9.000E+00
      23     2     1     2     0     0 -6.523247729E-01  7.458887338E-01  6.200703076E+02  6.200722739E+02  1.206899257E+00  0.00000E+00  9.000E+00
      11     1     3     3     0     0  3.092200264E-01  1.157648882E-01  2.401421807E+02  2.401424077E+02  5.110000000E-04  0.00000E+00  9.000E+00
     -11     1     3     3     0     0 -9.615447993E-01  6.301238456E-01  3.799281269E+02  3.799298662E+02  5.110000000E-04  0.00000E+00  9.000E+00
       2     1     1     2   502     0  6.523247729E-01 -7.458887338E-01  4.018172349E+01  4.019393959E+01  0.000000000E+00  0.00000E+00  9.000E+00
#rwgt            1          24  -54196108.305768542                3    12356844           0
<weights>
-.11145E+08
-.12194E+08
-.98004E+07
-.14834E+08
-.78530E+07
-.91621E+07
-.13909E+08
-.11177E+08
-.11115E+08
-.10835E+08
-.10831E+08
-.10966E+08
-.11016E+08
-.10855E+08
-.10841E+08
-.11224E+08
-.11202E+08
-.11445E+08
-.11484E+08
-.11473E+08
-.11423E+08
-.11480E+08
-.11503E+08
-.11387E+08
-.11328E+08
-.11283E+08
-.11322E+08
-.11417E+08
-.11356E+08
-.11456E+08
-.11493E+08
-.11178E+08
-.11217E+08
-.11139E+08
-.11174E+08
-.11213E+08
-.11096E+08
-.11109E+08
-.11107E+08
-.11161E+08
-.11132E+08
-.11182E+08
-.11107E+08
-.11488E+08
-.10829E+08
</weights>
</event>
<event>
      7  10001 -1.11453E+07  1.83531E+00 -1.00000E+00  3.70684E-01
      -4    -1     0     0     0   502  0.000000000E+00  0.000000000E+00  5.217719955E+00  5.217719955E+00  0.000000000E+00  0.00000E+00  9.000E+00
      21    -1     0     0   502   501  0.000000000E+00  0.000000000E+00 -1.074005969E+00  1.074005969E+00  0.000000000E+00  0.00000E+00  9.000E+00
      23     2     1     2     0     0 -2.078904291E-01 -3.297241335E-01  4.544389818E+00  4.919645123E+00  1.843771375E+00  0.00000E+00  9.000E+00
      11     1     3     3     0     0  4.537849391E-01 -8.789897452E-01  1.951950640E+00  2.188299638E+00  5.110000000E-04  0.00000E+00  9.000E+00
     -11     1     3     3     0     0 -6.616753682E-01  5.492656117E-01  2.592439178E+00  2.731345485E+00  5.110000000E-04  0.00000E+00  9.000E+00
      -4     1     1     2     0   511  4.520327353E-01 -3.124961077E-01  4.779177519E-02  5.516080718E-01  0.000000000E+00  0.00000E+00  9.000E+00
      21     1     1     2   511   501 -2.441423062E-01  6.422202412E-01 -4.484676075E-01  8.204727289E-01  4.712160915E-08  0.00000E+00  9.000E+00
#rwgt            1           3  -323753.15498758445                3    12357619           0
<weights>
-.11145E+08
0.54243E+07
-.26856E+08
-.13655E+08
-.97312E+07
0.38679E+07
-.33925E+08
-.11201E+08
-.11099E+08
-.12233E+08
-.12568E+08
-.11548E+08
-.11957E+08
-.12415E+08
-.12545E+08
-.10997E+08
-.10378E+08
-.97372E+07
-.94506E+07
-.94612E+07
-.98505E+07
-.94810E+07
-.94715E+07
-.97925E+07
-.10573E+08
-.10482E+08
-.10434E+08
-.96202E+07
-.10025E+08
-.93922E+07
-.94539E+07
-.10757E+08
-.11025E+08
-.11213E+08
-.10939E+08
-.11223E+08
-.11009E+08
-.99327E+07
-.12653E+08
-.10667E+08
-.11565E+08
-.10949E+08
-.11351E+08
-.96435E+07
-.12462E+08
</weights>
</event>
<event>
      6  10001 -1.11453E+07  8.94427E-01 -1.00000E+00  3.91518E-01
       1    -1     0     0   501     0  0.000000000E+00  0.000000000E+00  1.378245697E+02  1.378245697E+02  0.000000000E+00  0.00000E+00  9.000E+00
      21    -1     0     0   502   501  0.000000000E+00  0.000000000E+00 -1.100748093E-02  1.100748093E-02  0.000000000E+00  0.00000E+00  9.000E+00
      23     2     1     2     0     0 -1.945088247E-01 -4.486229058E-01  1.300192846E+02  1.300259767E+02  1.225214521E+00  0.00000E+00  9.000E+00
      11     1     3     3     0     0  1.958066977E-01  1.626874160E-01  7.116288986E+00  7.120841007E+00  5.110000000E-04  0.00000E+00  9.000E+00
     -11     1     3     3     0     0 -3.903155224E-01 -6.113103218E-01  1.229029956E+02  1.229051356E+02  5.110000000E-04  0.00000E+00  9.000E+00
       1     1     1     2   502     0  1.945088247E-01  4.486229058E-01  7.794277654E+00  7.809600524E+00  0.000000000E+00  0.00000E+00  9.000E+00
#rwgt            1          22  -3255935.1732717250                3    12392945           0
<weights>
-.11145E+08
-.12296E+08
-.97933E+07
-.14955E+08
-.78472E+07
-.91642E+07
-.13909E+08
-.11172E+08
-.11120E+08
-.10825E+08
-.10815E+08
-.10962E+08
-.11007E+08
-.10842E+08
-.10826E+08
-.11226E+08
-.11210E+08
-.11460E+08
-.11502E+08
-.11490E+08
-.11437E+08
-.11499E+08
-.11519E+08
-.11410E+08
-.11328E+08
-.11286E+08
-.11352E+08
-.11433E+08
-.11370E+08
-.11477E+08
-.11512E+08
-.11183E+08
-.11217E+08
-.11138E+08
-.11177E+08
-.11209E+08
-.11101E+08
-.11130E+08
-.11086E+08
-.11166E+08
-.11128E+08
-.11185E+08
-.11104E+08
-.11504E+08
-.10815E+08
</weights>
</event>
<event>
      6  10001 -1.11453E+07  8.94427E-01 -1.00000E+00  4.35451E-01
      21    -1     0     0   502   501  0.000000000E+00  0.000000000E+00  1.958870383E-02  1.958870383E-02  0.000000000E+00  0.00000E+00  9.000E+00
       2    -1     0     0   501     0  0.000000000E+00  0.000000000E+00 -6.314588744E+01  6.314588744E+01  0.000000000E+00  0.00000E+00  9.000E+00
      23     2     1     2     0     0 -2.027949070E-01  2.710914007E-01 -6.119203356E+01  6.120180660E+01  1.039972626E+00  0.00000E+00  9.000E+00
      11     1     3     3     0     0 -5.964489337E-03  5.729283501E-02 -1.781661548E-01  1.872471199E-01  5.110000000E-04  0.00000E+00  9.000E+00
     -11     1     3     3     0     0 -1.968304177E-01  2.137985657E-01 -6.101386741E+01  6.101455948E+01  5.110000000E-04  0.00000E+00  9.000E+00
       2     1     1     2   502     0  2.027949070E-01 -2.710914007E-01 -1.934265173E+00  1.963669545E+00  0.000000000E+00  0.00000E+00  9.000E+00
#rwgt            1          17  -19465761.882525541                3    12393794           0
<weights>
-.11145E+08
-.12261E+08
-.99151E+07
-.14901E+08
-.79445E+07
-.91702E+07
-.13910E+08
-.11175E+08
-.11115E+08
-.11106E+08
-.11139E+08
-.11159E+08
-.11079E+08
-.11134E+08
-.11138E+08
-.11125E+08
-.11146E+08
-.11067E+08
-.11250E+08
-.11261E+08
-.11059E+08
-.11149E+08
-.11141E+08
-.11235E+08
-.11064E+08
-.11087E+08
-.11169E+08
-.11277E+08
-.10935E+08
-.11153E+08
-.11130E+08
-.11139E+08
-.11150E+08
-.11070E+08
-.11244E+08
-.11126E+08
-.11161E+08
-.11063E+08
-.11238E+08
-.11082E+08
-.11196E+08
-.11203E+08
-.11084E+08
-.11158E+08
-.11127E+08
</weights>
</event>
<event>
      6  10001  1.11453E+07  8.94427E-01 -1.00000E+00  6.06020E-01
      -4    -1     0     0     0   502  0.000000000E+00  0.000000000E+00  3.193722697E+00  3.193722697E+00  0.000000000E+00  0.00000E+00  9.000E+00
      21    -1     0     0   502   501  0.000000000E+00  0.000000000E+00 -1.970861942E+00  1.970861942E+00  0.000000000E+00  0.00000E+00  9.000E+00
      23     2     1     2     0     0  7.795060223E-01  7.497128550E-01  1.934944780E+00  3.869685931E+00  3.171869937E+00  0.00000E+00  9.000E+00
      11     1     3     3     0     0 -4.029329361E-01 -1.541924063E-01 -7.122772563E-01  8.327481012E-01  5.110000000E-04  0.00000E+00  9.000E+00
     -11     1     3     3     0     0  1.182438958E+00  9.039052613E-01  2.647222036E+00  3.036937830E+00  5.110000000E-04  0.00000E+00  9.000E+00
      -4     1     1     2     0   501 -7.795060223E-01 -7.497128550E-01 -7.120840259E-01  1.294898708E+00  0.000000000E+00  0.00000E+00  9.000E+00
#rwgt            1           3   473828.49276088487                3    12394719           0
<weights>
0.11145E+08
0.16164E+08
0.63983E+07
0.11673E+08
0.98274E+07
0.14334E+08
0.59835E+07
0.11199E+08
0.11085E+08
0.10586E+08
0.10516E+08
0.10854E+08
0.10859E+08
0.10579E+08
0.10533E+08
0.11275E+08
0.11343E+08
0.11772E+08
0.11804E+08
0.11799E+08
0.11721E+08
0.11847E+08
0.11855E+08
0.11605E+08
0.11491E+08
0.11468E+08
0.11232E+08
0.11759E+08
0.11580E+08
0.11837E+08
0.11863E+08
0.11263E+08
0.11242E+08
0.11116E+08
0.11227E+08
0.11240E+08
0.11080E+08
0.11345E+08
0.10811E+08
0.11252E+08
0.11054E+08
0.11217E+08
0.11071E+08
0.11820E+08
0.10535E+08
</weights>
</event>
<event>
      7  10001  1.11453E+07  8.94427E-01 -1.00000E+00  6.07649E-01
       5    -1     0     0   501     0  0.000000000E+00  0.000000000E+00  3.210846144E+00  3.210846144E+00  0.000000000E+00  0.00000E+00  9.000E+00
      21    -1     0     0   502   501  0.000000000E+00  0.000000000E+00 -4.549243442E-01  4.549243442E-01  0.000000000E+00  0.00000E+00  9.000E+00
      23     2     1     2     0     0 -1.740925927E-02  2.768668515E-01  2.831831938E+00  3.255241968E+00  1.581255769E+00  0.00000E+00  9.000E+00
      11     1     3     3     0     0  3.553736886E-02  7.369960752E-01  2.661279801E+00  2.761672783E+00  5.110000000E-04  0.00000E+00  9.000E+00
     -11     1     3     3     0     0 -5.294662814E-02 -4.601292236E-01  1.705521375E-01  4.935691852E-01  5.110000000E-04  0.00000E+00  9.000E+00
       5     1     1     2   511     0  2.673562472E-03 -1.234810341E-01  1.125445429E-01  1.670957446E-01  0.000000000E+00  0.00000E+00  9.000E+00
      21     1     1     2   502   511  1.473569680E-02 -1.533858175E-01 -1.884546809E-01  2.434327762E-01  4.181627989E-08  0.00000E+00  9.000E+00
#rwgt            2         338   906521.29794667405                3    12432685           0
<weights>
0.11145E+08
0.12744E+08
0.91011E+07
0.15489E+08
0.72923E+07
0.91702E+07
0.13910E+08
0.11191E+08
0.11097E+08
0.10839E+08
0.10838E+08
0.10966E+08
0.11023E+08
0.10860E+08
0.10848E+08
0.11226E+08
0.11195E+08
0.11442E+08
0.11463E+08
0.11456E+08
0.11419E+08
0.11472E+08
0.11495E+08
0.11350E+08
0.11337E+08
0.11289E+08
0.11210E+08
0.11412E+08
0.11346E+08
0.11447E+08
0.11484E+08
0.11177E+08
0.11215E+08
0.11139E+08
0.11174E+08
0.11224E+08
0.11083E+08
0.11100E+08
0.11116E+08
0.11159E+08
0.11135E+08
0.11179E+08
0.11110E+08
0.11481E+08
0.10835E+08
</weights>
</event>
<event>
      6  10001 -1.11453E+07  8.94427E-01 -1.00000E+00  3.82418E-01
      21    -1     0     0   502   501  0.000000000E+00  0.000000000E+00  4.447141580E-03  4.447141580E-03  0.000000000E+00  0.00000E+00  9.000E+00
       2    -1     0     0   501     0  0.000000000E+00  0.000000000E+00 -3.176494423E+02  3.176494423E+02  0.000000000E+00  0.00000E+00  9.000E+00
      23     2     1     2     0     0  1.889894153E-01 -3.757525105E-01 -3.040586320E+02  3.040610174E+02  1.128579150E+00  0.00000E+00  9.000E+00
      11     1     3     3     0     0  1.290757692E-02 -3.930433094E-01 -3.321985413E+01  3.322218172E+01  5.110000000E-04  0.00000E+00  9.000E+00
     -11     1     3     3     0     0  1.760818384E-01  1.729079897E-02 -2.708387779E+02  2.708388357E+02  5.110000000E-04  0.00000E+00  9.000E+00
       2     1     1     2   502     0 -1.889894153E-01  3.757525105E-01 -1.358636320E+01  1.359287210E+01  0.000000000E+00  0.00000E+00  9.000E+00
#rwgt            1          17  -40927424.659744762                3    12433734           0
<weights>
-.11145E+08
-.12154E+08
-.99821E+07
-.14772E+08
-.79982E+07
-.91702E+07
-.13910E+08
-.11127E+08
-.11162E+08
-.11169E+08
-.11160E+08
-.11042E+08
-.11268E+08
-.11163E+08
-.11161E+08
-.11334E+08
-.10860E+08
-.11359E+08
-.10811E+08
-.10768E+08
-.11382E+08
-.11104E+08
-.11159E+08
-.11116E+08
-.11127E+08
-.11225E+08
-.11089E+08
-.10889E+08
-.11393E+08
-.11085E+08
-.11165E+08
-.11028E+08
-.11258E+08
-.11366E+08
-.10863E+08
-.11122E+08
-.11165E+08
-.11164E+08
-.11129E+08
-.11208E+08
-.11088E+08
-.11148E+08
-.11142E+08
-.11125E+08
-.11165E+08
</weights>
</event>
<event>
      6  10001 -1.11453E+07  8.94427E-01 -1.00000E+00  5.98248E-01
      21    -1     0     0   502   501  0.000000000E+00  0.000000000E+00  4.245151393E-02  4.245151393E-02  0.000000000E+00  0.00000E+00  9.000E+00
       5    -1     0     0   501     0  0.000000000E+00  0.000000000E+00 -1.141136854E+02  1.141136854E+02  0.000000000E+00  0.00000E+00  9.000E+00
      23     2     1     2     0     0  4.383711600E-01  4.521023695E-01 -1.110364177E+02  1.110566733E+02  2.025351358E+00  0.00000E+00  9.000E+00
      11     1     3     3     0     0  1.014288396E+00  5.572893712E-02 -9.452784463E+01  9.453330258E+01  5.110000000E-04  0.00000E+00  9.000E+00
     -11     1     3     3     0     0 -5.759172355E-01  3.963734323E-01 -1.650857311E+01  1.652337069E+01  5.110000000E-04  0.00000E+00  9.000E+00
       5     1     1     2   502     0 -4.383711600E-01 -4.521023695E-01 -3.034816191E+00  3.099463686E+00  0.000000000E+00  0.00000E+00  9.000E+00
#rwgt            1          20  -54924.245042320712                3    12435023           0
<weights>
-.11145E+08
-.35892E+07
-.17596E+08
-.11884E+08
-.10156E+08
-.45253E+07
-.21040E+08
-.10985E+08
-.11303E+08
-.11600E+08
-.11414E+08
-.11264E+08
-.11416E+08
-.11479E+08
-.11461E+08
-.11052E+08
-.11137E+08
-.10849E+08
-.10826E+08
-.10832E+08
-.10871E+08
-.10831E+08
-.10778E+08
-.11104E+08
-.10770E+08
-.10922E+08
-.11222E+08
-.10926E+08
-.10966E+08
-.10917E+08
-.10815E+08
-.11212E+08
-.10976E+08
-.11079E+08
-.11206E+08
-.10989E+08
-.11280E+08
-.11573E+08
-.10732E+08
-.11075E+08
-.11213E+08
-.11070E+08
-.11225E+08
-.10772E+08
-.11504E+08
</weights>
</event>
<event>
      6  10001  1.11453E+07  8.94427E-01 -1.00000E+00  6.02658E-01
      -4    -1     0     0     0   502  0.000000000E+00  0.000000000E+00  1.507226048E+00  1.507226048E+00  0.000000000E+00  0.00000E+00  9.000E+00
      21    -1     0     0   502   501  0.000000000E+00  0.000000000E+00 -5.167908103E+00  5.167908103E+00  0.000000000E+00  0.00000E+00  9.000E+00
      23     2     1     2     0     0  9.503030922E-01  9.463289147E-02  9.615666728E-01  1.955259720E+00  1.409396593E+00  0.00000E+00  9.000E+00
      11     1     3     3     0     0 -1.561483514E-01 -4.037566391E-01  4.647974215E-02  4.353875961E-01  5.110000000E-04  0.00000E+00  9.000E+00
     -11     1     3     3     0     0  1.106451444E+00  4.983895306E-01  9.150869307E-01  1.519872124E+00  5.110000000E-04  0.00000E+00  9.000E+00
      -4     1     1     2     0   501 -9.503030922E-01 -9.463289147E-02 -4.622248727E+00  4.719874431E+00  0.000000000E+00  0.00000E+00  9.000E+00
#rwgt            1           3   1475798.4440907140                3    12438290           0
<weights>
0.11145E+08
0.13242E+08
0.89980E+07
0.12680E+08
0.92840E+07
0.11412E+08
0.10469E+08
0.11219E+08
0.11066E+08
0.10701E+08
0.10681E+08
0.10898E+08
0.10950E+08
0.10712E+08
0.10693E+08
0.11252E+08
0.11263E+08
0.11606E+08
0.11629E+08
0.11627E+08
0.11568E+08
0.11649E+08
0.11687E+08
0.11422E+08
0.11460E+08
0.11418E+08
0.11105E+08
0.11583E+08
0.11440E+08
0.11623E+08
0.11667E+08
0.11206E+08
0.11239E+08
0.11127E+08
0.11197E+08
0.11266E+08
0.11047E+08
0.11147E+08
0.11002E+08
0.11198E+08
0.11101E+08
0.11192E+08
0.11097E+08
0.11652E+08
0.10683E+08
</weights>
</event>
<event>
      6  10001  1.11453E+07  8.94427E-01 -1.00000E+00  6.04192E-01
      -4    -1     0     0     0   502  0.000000000E+00  0.000000000E+00  3.918211165E-01  3.918211165E-01  0.000000000E+00  0.00000E+00  9.000E+00
      21    -1     0     0   502   501  0.000000000E+00  0.000000000E+00 -3.797535251E+01  3.797535251E+01  0.000000000E+00  0.00000E+00  9.000E+00
      23     2     1     2     0     0  2.376539101E-01  2.669208834E-01 -7.732547907E-01  1.555162140E+00  1.301107286E+00  0.00000E+00  9.000E+00
      11     1     3     3     0     0 -1.669429274E-01 -4.733114516E-01 -2.324388553E-01  5.531019380E-01  5.110000000E-04  0.00000E+00  9.000E+00
     -11     1     3     3     0     0  4.045968375E-01  7.402323350E-01 -5.408159353E-01  1.002060202E+00  5.110000000E-04  0.00000E+00  9.000E+00
      -4     1     1     2     0   501 -2.376539101E-01 -2.669208834E-01 -3.681027661E+01  3.681201149E+01  0.000000000E+00  0.00000E+00  9.000E+00
#rwgt            1           3   19333268.446829811                3    12480051           0
<weights>
0.11145E+08
0.12065E+08
0.99844E+07
0.13016E+08
0.91241E+07
0.10310E+08
0.12160E+08
0.11267E+08
0.11023E+08
0.10786E+08
0.10883E+08
0.10930E+08
0.11054E+08
0.10851E+08
0.10877E+08
0.11219E+08
0.11162E+08
0.11397E+08
0.11441E+08
0.11435E+08
0.11380E+08
0.11406E+08
0.11491E+08
0.11202E+08
0.11458E+08
0.11382E+08
0.11024E+08
0.11366E+08
0.11252E+08
0.11338E+08
0.11426E+08
0.11106E+08
0.11270E+08
0.11168E+08
0.11130E+08
0.11333E+08
0.10979E+08
0.10775E+08
0.11447E+08
0.11115E+08
0.11173E+08
0.11158E+08
0.11133E+08
0.11466E+08
0.10839E+08
</weights>
</event>
<event>
      7  10001  1.11453E+07  5.12076E+00 -1.00000E+00  2.35167E-01
      21    -1     0     0   511   501  0.000000000E+00  0.000000000E+00  2.389388230E+00  2.389388230E+00  0.000000000E+00  0.00000E+00  9.000E+00
       1    -1     0     0   501     0  0.000000000E+00  0.000000000E+00 -3.093179238E+02  3.093179238E+02  0.000000000E+00  0.00000E+00  9.000E+00
      23     2     1     2     0     0 -1.258242553E+00  2.410644560E+00 -1.798868868E+02  1.799114799E+02  1.205902580E+00  0.00000E+00  9.000E+00
      11     1     3     3     0     0 -8.856130650E-01  1.157067659E+00 -1.272802634E+02  1.272886034E+02  5.110000000E-04  0.00000E+00  9.000E+00
     -11     1     3     3     0     0 -3.726294876E-01  1.253576901E+00 -5.260662339E+01  5.262287651E+01  5.110000000E-04  0.00000E+00  9.000E+00
       1     1     1     2   502     0  3.581145216E+00  2.152936341E+00 -1.265858885E+02  1.266548337E+02  0.000000000E+00  0.00000E+00  9.000E+00
      21     1     1     2   511   502 -2.322902663E+00 -4.563580900E+00 -4.557603615E-01  5.140998437E+00  3.750906728E-07  0.00000E+00  9.000E+00
#rwgt            1          16   375390.50706481637                3    12532514           0
<weights>
0.11145E+08
0.12318E+08
0.98868E+07
0.11960E+08
0.99774E+07
0.11247E+08
0.10722E+08
0.11237E+08
0.11056E+08
0.11152E+08
0.11221E+08
0.11376E+08
0.10860E+08
0.11178E+08
0.11188E+08
0.10259E+08
0.12217E+08
0.10499E+08
0.11824E+08
0.11923E+08
0.10414E+08
0.11169E+08
0.11022E+08
0.11407E+08
0.10805E+08
0.10783E+08
0.11333E+08
0.11574E+08
0.10445E+08
0.11205E+08
0.11039E+08
0.11080E+08
0.11197E+08
0.10494E+08
0.11826E+08
0.11147E+08
0.11133E+08
0.11150E+08
0.11147E+08
0.11269E+08
0.11024E+08
0.11223E+08
0.11061E+08
0.11101E+08
0.11185E+08
</weights>
</event>
<event>
      6  10001 -1.11453E+07  8.94427E-01 -1.00000E+00  6.05606E-01
       3    -1     0     0   501     0  0.000000000E+00  0.000000000E+00  6.315189911E-01  6.315189911E-01  0.000000000E+00  0.00000E+00  9.000E+00
      -3    -1     0     0     0   502  0.000000000E+00  0.000000000E+00 -9.916129658E-01  9.916129658E-01  0.000000000E+00  0.00000E+00  9.000E+00
      23     2     1     2     0     0 -2.707489626E-01  1.896745497E-01 -2.090527381E-01  1.259683349E+00  1.197421253E+00  0.00000E+00  9.000E+00
      11     1     3     3     0     0 -3.092678373E-01  4.640861031E-01 -5.747558375E-01  8.008539444E-01  5.110000000E-04  0.00000E+00  9.000E+00
     -11     1     3     3     0     0  3.851887468E-02 -2.744115535E-01  3.657030994E-01  4.588294045E-01  5.110000000E-04  0.00000E+00  9.000E+00
      21     1     1     2   501   502  2.707489626E-01 -1.896745497E-01 -1.510412365E-01  3.634486081E-01  1.037076928E-08  0.00000E+00  9.000E+00
#rwgt            1          25  -177471.41709513895                3    12534295           0
<weights>
-.11145E+08
-.11681E+08
-.10001E+08
-.18793E+08
-.56047E+07
-.63636E+07
-.18218E+08
-.11211E+08
-.11078E+08
-.10917E+08
-.10942E+08
-.10951E+08
-.11135E+08
-.10951E+08
-.10950E+08
-.11231E+08
-.11168E+08
-.11515E+08
-.10941E+08
-.11026E+08
-.11475E+08
-.11359E+08
-.11354E+08
-.10492E+08
-.11649E+08
-.11739E+08
-.85067E+07
-.11454E+08
-.11005E+08
-.11321E+08
-.11338E+08
-.11116E+08
-.11235E+08
-.11138E+08
-.11160E+08
-.11241E+08
-.11062E+08
-.10956E+08
-.11267E+08
-.11117E+08
-.11172E+08
-.11148E+08
-.11143E+08
-.11370E+08
-.10932E+08
</weights>
</event>
<event>
      7  10001 -1.11453E+07  1.07683E+00 -1.00000E+00  5.34743E-01
      21    -1     0     0   502   511  0.000000000E+00  0.000000000E+00  2.488308792E+01  2.488308792E+01  0.000000000E+00  0.00000E+00  9.000E+00
      -2    -1     0     0     0   502  0.000000000E+00  0.000000000E+00 -6.435468881E+00  6.435468881E+00  0.000000000E+00  0.00000E+00  9.000E+00
      23     2     1     2     0     0  8.407510352E-02 -6.475528005E-01 -4.837092760E+00  5.007506883E+00  1.118599826E+00  0.00000E+00  9.000E+00
      11     1     3     3     0     0  2.345131304E-01 -2.121089720E-01 -4.247563317E+00  4.259316966E+00  5.110000000E-04  0.00000E+00  9.000E+00
     -11     1     3     3     0     0 -1.504380269E-01 -4.354438285E-01 -5.895294425E-01  7.481899174E-01  5.110000000E-04  0.00000E+00  9.000E+00
      -2     1     1     2     0   501  6.935087859E-01 -9.738376859E-02 -1.419778988E+00  1.583101516E+00  0.000000000E+00  0.00000E+00  9.000E+00
      21     1     1     2   501   511 -7.775838894E-01  7.449365691E-01  2.470449078E+01  2.472794840E+01  3.371747881E-07  0.00000E+00  9.000E+00
#rwgt            1          14  -566979.04737062484                3    12535439           0
<weights>
-.11145E+08
-.11305E+08
-.95127E+07
-.22385E+08
-.28889E+07
-.37757E+07
-.22191E+08
-.11317E+08
-.10973E+08
-.10989E+08
-.11073E+08
-.11007E+08
-.11181E+08
-.11044E+08
-.11071E+08
-.11228E+08
-.11034E+08
-.11201E+08
-.11231E+08
-.11234E+08
-.11193E+08
-.11198E+08
-.11254E+08
-.11080E+08
-.11315E+08
-.11177E+08
-.11109E+08
-.11155E+08
-.11190E+08
-.11146E+08
-.11220E+08
-.11132E+08
-.11179E+08
-.11150E+08
-.11135E+08
-.11418E+08
-.10873E+08
-.10850E+08
-.11419E+08
-.11088E+08
-.11200E+08
-.11114E+08
-.11179E+08
-.11250E+08
-.11036E+08
</weights>
</event>
<event>
      6  10001 -1.11453E+07  8.94427E-01 -1.00000E+00  4.27639E-01
       4    -1     0     0   501     0  0.000000000E+00  0.000000000E+00  5.915104675E+00  5.915104675E+00  0.000000000E+00  0.00000E+00  9.000E+00
      21    -1     0     0   502   501  0.000000000E+00  0.000000000E+00 -1.086334046E-01  1.086334046E-01  0.000000000E+00  0.00000E+00  9.000E+00
      23     2     1     2     0     0  2.745135147E-01 -2.771257442E-02  5.495887019E+00  5.608300679E+00  1.082652634E+00  0.00000E+00  9.000E+00
      11     1     3     3     0     0  3.408581680E-01  2.807135892E-01  9.089968408E-01  1.010574058E+00  5.110000000E-04  0.00000E+00  9.000E+00
     -11     1     3     3     0     0 -6.634465324E-02 -3.084261637E-01  4.586890178E+00  4.597726621E+00  5.110000000E-04  0.00000E+00  9.000E+00
       4     1     1     2   502     0 -2.745135147E-01  2.771257442E-02  3.105842520E-01  4.154374010E-01  0.000000000E+00  0.00000E+00  9.000E+00
#rwgt            1          28  -401677.40287032747                3    12546346           0
<weights>
-.11145E+08
-.83721E+07
-.12956E+08
-.16972E+08
-.68556E+07
-.50206E+07
-.20280E+08
-.11256E+08
-.11028E+08
-.11003E+08
-.11087E+08
-.11031E+08
-.11159E+08
-.11057E+08
-.11085E+08
-.11199E+08
-.11065E+08
-.11203E+08
-.11171E+08
-.11178E+08
-.11197E+08
-.11178E+08
-.11237E+08
-.11015E+08
-.11311E+08
-.11217E+08
-.10806E+08
-.11153E+08
-.11132E+08
-.11126E+08
-.11192E+08
-.11094E+08
-.11209E+08
-.11161E+08
-.11123E+08
-.11282E+08
-.11013E+08
-.10798E+08
-.11438E+08
-.11080E+08
-.11203E+08
-.11139E+08
-.11152E+08
-.11231E+08
-.11053E+08
</weights>
</event>
<event>
      7  10001 -1.11453E+07  1.29372E+00 -1.00000E+00  4.72138E-01
       3    -1     0     0   501     0  0.000000000E+00  0.000000000E+00  9.364482454E+00  9.364482454E+00  0.000000000E+00  0.00000E+00  9.000E+00
      21    -1     0     0   511   501  0.000000000E+00  0.000000000E+00 -2.761095636E+00  2.761095636E+00  0.000000000E+00  0.00000E+00  9.000E+00
      23     2     1     2     0     0 -4.900172404E-01 -6.966095544E-01  6.424587231E+00  6.640336076E+00  1.446844959E+00  0.00000E+00  9.000E+00
      11     1     3     3     0     0 -5.463827144E-01 -1.066933517E+00  5.699682100E+00  5.824367563E+00  5.110000000E-04  0.00000E+00  9.000E+00
     -11     1     3     3     0     0  5.636547402E-02  3.703239625E-01  7.249051311E-01  8.159685130E-01  5.110000000E-04  0.00000E+00  9.000E+00
       3     1     1     2   502     0  1.001054526E-02 -5.047708329E-01  2.649043630E+00  2.696725044E+00  0.000000000E+00  0.00000E+00  9.000E+00
      21     1     1     2   511   502  4.800066951E-01  1.201380387E+00 -2.470244043E+00  2.788516971E+00  2.980232239E-08  0.00000E+00  9.000E+00
#rwgt            1          26  -185811.37096634557                3    12574983           0
<weights>
-.11145E+08
-.10143E+08
-.11674E+08
-.15780E+08
-.74520E+07
-.70074E+07
-.17230E+08
-.11221E+08
-.11066E+08
-.10960E+08
-.11013E+08
-.11015E+08
-.11116E+08
-.11004E+08
-.11015E+08
-.11207E+08
-.11104E+08
-.11273E+08
-.11258E+08
-.11258E+08
-.11262E+08
-.11269E+08
-.11304E+08
-.11146E+08
-.11295E+08
-.11221E+08
-.11011E+08
-.11229E+08
-.11204E+08
-.11227E+08
-.11280E+08
-.11123E+08
-.11208E+08
-.11153E+08
-.11140E+08
-.11250E+08
-.11050E+08
-.10916E+08
-.11332E+08
-.11104E+08
-.11182E+08
-.11154E+08
-.11137E+08
-.11304E+08
-.10990E+08
</weights>
</event>
<event>
      6  10001 -1.11453E+07  8.94427E-01 -1.00000E+00  2.36385E-01
      21    -1     0     0   502   501  0.000000000E+00  0.000000000E+00  1.355436769E-03  1.355436769E-03  0.000000000E+00  0.00000E+00  9.000E+00
       2    -1     0     0   501     0  0.000000000E+00  0.000000000E+00 -8.612127915E+02  8.612127915E+02  0.000000000E+00  0.00000E+00  9.000E+00
      23     2     1     2     0     0 -4.117547877E-01  9.861029226E-02 -7.474705530E+02  7.474724758E+02  1.641723598E+00  0.00000E+00  9.000E+00
      11     1     3     3     0     0 -5.424112210E-01 -2.880626502E-01 -6.970598074E+02  6.970600779E+02  5.110000000E-04  0.00000E+00  9.000E+00
     -11     1     3     3     0     0  1.306564333E-01  3.866729425E-01 -5.041074567E+01  5.041239794E+01  5.110000000E-04  0.00000E+00  9.000E+00
       2     1     1     2   502     0  4.117547877E-01 -9.861029226E-02 -1.137408830E+02  1.137416711E+02  0.000000000E+00  0.00000E+00  9.000E+00
#rwgt            1          17  -50762670.984059654                3    12580473           0
<weights>
-.11145E+08
-.11832E+08
-.10262E+08
-.14380E+08
-.82224E+07
-.91702E+07
-.13910E+08
-.11137E+08
-.11153E+08
-.11163E+08
-.11136E+08
-.10911E+08
-.11405E+08
-.11152E+08
-.11145E+08
-.10881E+08
-.11526E+08
-.11598E+08
-.10536E+08
-.10436E+08
-.11662E+08
-.11126E+08
-.11162E+08
-.10910E+08
-.11357E+08
-.11638E+08
-.10852E+08
-.10521E+08
-.11884E+08
-.11046E+08
-.11214E+08
-.11169E+08
-.11117E+08
-.11794E+08
-.10384E+08
-.11044E+08
-.11240E+08
-.11114E+08
-.11189E+08
-.11335E+08
-.10979E+08
-.11114E+08
-.11178E+08
-.11139E+08
-.11151E+08
</weights>
</event>
<event>
      7  10001  1.11453E+07  6.75307E+00 -1.00000E+00  2.16874E-01
      21    -1     0     0   502   501  0.000000000E+00  0.000000000E+00  2.488380922E+00  2.488380922E+00  0.000000000E+00  0.00000E+00  9.000E+00
       1    -1     0     0   501     0  0.000000000E+00  0.000000000E+00 -6.690998703E+00  6.690998703E+00  0.000000000E+00  0.00000E+00  9.000E+00
      23     2     1     2     0     0 -1.102924920E+00 -2.360507118E-02 -1.897105944E+00  3.015998852E+00  2.068873493E+00  0.00000E+00  9.000E+00
      11     1     3     3     0     0  7.537250001E-02  8.598891461E-01 -8.281773288E-01  1.196230875E+00  5.110000000E-04  0.00000E+00  9.000E+00
     -11     1     3     3     0     0 -1.178297420E+00 -8.834942173E-01 -1.068928615E+00  1.819767977E+00  5.110000000E-04  0.00000E+00  9.000E+00
       1     1     1     2   511     0 -1.156005001E+00  1.083951152E+00 -3.152293180E+00  3.528207754E+00  0.000000000E+00  0.00000E+00  9.000E+00
      21     1     1     2   502   511  2.258929921E+00 -1.060346081E+00  8.467813436E-01  2.635173019E+00  1.281846354E-07  0.00000E+00  9.000E+00
#rwgt            2         186   538054.59393112489                3    12583528           0
<weights>
0.11145E+08
0.11108E+08
0.10969E+08
0.13500E+08
0.87888E+07
0.91702E+07
0.13910E+08
0.11139E+08
0.11146E+08
0.10902E+08
0.10892E+08
0.10952E+08
0.11082E+08
0.10916E+08
0.10909E+08
0.11181E+08
0.11187E+08
0.11448E+08
0.11282E+08
0.11252E+08
0.11444E+08
0.11392E+08
0.11432E+08
0.11264E+08
0.11335E+08
0.11396E+08
0.11020E+08
0.11302E+08
0.11308E+08
0.11361E+08
0.11410E+08
0.11141E+08
0.11226E+08
0.11222E+08
0.11054E+08
0.11082E+08
0.11225E+08
0.11048E+08
0.11161E+08
0.11134E+08
0.11151E+08
0.11208E+08
0.11079E+08
0.11410E+08
0.10900E+08
</weights>
</event>
<event>
      6  10001 -1.11453E+07  8.94427E-01 -1.00000E+00  1.55995E-01
      -2    -1     0     0     0   502  0.000000000E+00  0.000000000E+00  7.998527533E-03  7.998527533E-03  0.000000000E+00  0.00000E+00  9.000E+00
      21    -1     0     0   502   501  0.000000000E+00  0.000000000E+00 -7.675333141E+01  7.675333141E+01  0.000000000E+00  0.00000E+00  9.000E+00
      23     2     1     2     0     0  3.285126678E-01  4.776987619E-02 -4.245242466E+01  4.246681497E+01  1.054424778E+00  0.00000E+00  9.000E+00
      11     1     3     3     0     0  2.139585941E-01 -4.317673417E-01 -3.104664215E+01  3.105038149E+01  5.110000000E-04  0.00000E+00  9.000E+00
     -11     1     3     3     0     0  1.145540737E-01  4.795372179E-01 -1.140578251E+01  1.141643348E+01  5.110000000E-04  0.00000E+00  9.000E+00
      -2     1     1     2     0   501 -3.285126678E-01 -4.776987619E-02 -3.429290823E+01  3.429451497E+01  0.000000000E+00  0.00000E+00  9.000E+00
#rwgt            1           7  -280470.94950438372                3    12583570           0
<weights>
-.11145E+08
-.12290E+08
-.97592E+07
-.14937E+08
-.78196E+07
-.91702E+07
-.13910E+08
-.11186E+08
-.11105E+08
-.11094E+08
-.11148E+08
-.11052E+08
-.11222E+08
-.11153E+08
-.11157E+08
-.11165E+08
-.11070E+08
-.11130E+08
-.11086E+08
-.11080E+08
-.11136E+08
-.11116E+08
-.11100E+08
-.11105E+08
-.11158E+08
-.11159E+08
-.11107E+08
-.11114E+08
-.11087E+08
-.11080E+08
-.11114E+08
-.11099E+08
-.11185E+08
-.11154E+08
-.11130E+08
-.11236E+08
-.11061E+08
-.10908E+08
-.11433E+08
-.11061E+08
-.11223E+08
-.11117E+08
-.11175E+08
-.11147E+08
-.11129E+08
</weights>
</event>
<event>
      6  10001 -1.11453E+07  8.94427E-01 -1.00000E+00  3.80721E-01
      -2    -1     0     0     0   502  0.000000000E+00  0.000000000E+00  1.009916017E+02  1.009916017E+02  0.000000000E+00  0.00000E+00  9.000E+00
      21    -1     0     0   502   501  0.000000000E+00  0.000000000E+00 -2.094238098E-02  2.094238098E-02  0.000000000E+00  0.00000E+00  9.000E+00
      23     2     1     2     0     0  5.697590558E-01  9.219609197E-01  6.578994279E+01  6.581513717E+01  1.463240206E+00  0.00000E+00  9.000E+00
      11     1     3     3     0     0  2.446749531E-01  5.031903721E-01  5.957421704E+01  5.957684452E+01  5.110000000E-04  0.00000E+00  9.000E+00
     -11     1     3     3     0     0  3.250841027E-01  4.187705477E-01  6.215725747E+00  6.238292657E+00  5.110000000E-04  0.00000E+00  9.000E+00
      -2     1     1     2     0   501 -5.697590558E-01 -9.219609197E-01  3.518071652E+01  3.519740690E+01  0.000000000E+00  0.00000E+00  9.000E+00
#rwgt            1           7  -3436863.0917866570                3    12586206           0
<weights>
-.11145E+08
-.12896E+08
-.91552E+07
-.15685E+08
-.73360E+07
-.91633E+07
-.13909E+08
-.11170E+08
-.11121E+08
-.10860E+08
-.10853E+08
-.10977E+08
-.11029E+08
-.10880E+08
-.10864E+08
-.11221E+08
-.11192E+08
-.11424E+08
-.11452E+08
-.11441E+08
-.11403E+08
-.11456E+08
-.11470E+08
-.11376E+08
-.11306E+08
-.11267E+08
-.11322E+08
-.11395E+08
-.11342E+08
-.11435E+08
-.11467E+08
-.11177E+08
-.11209E+08
-.11137E+08
-.11175E+08
-.11206E+08
-.11102E+08
-.11121E+08
-.11106E+08
-.11156E+08
-.11137E+08
-.11180E+08
-.11109E+08
-.11461E+08
-.10853E+08
</weights>
</event>
<event>
      6  10001 -1.11453E+07  8.94427E-01 -1.00000E+00  5.32486E-01
       2    -1     0     0   501     0  0.000000000E+00  0.000000000E+00  3.835129479E+01  3.835129479E+01  0.000000000E+00  0.00000E+00  9.000E+00
      21    -1     0     0   502   501  0.000000000E+00  0.000000000E+00 -2.493791522E-02  2.493791522E-02  0.000000000E+00  0.00000E+00  9.000E+00
      23     2     1     2     0     0  2.872105270E-01 -7.822531449E-02  3.703836767E+01  3.705429273E+01  1.044663358E+00  0.00000E+00  9.000E+00
      11     1     3     3     0     0  4.241787623E-01 -1.544454448E-01  3.610736655E+01  3.611018832E+01  5.110000000E-04  0.00000E+00  9.000E+00
     -11     1     3     3     0     0 -1.369682353E-01  7.622013031E-02  9.310011145E-01  9.441044127E-01  5.110000000E-04  0.00000E+00  9.000E+00
       2     1     1     2   502     0 -2.872105270E-01  7.822531449E-02  1.287989205E+00  1.321939968E+00  0.000000000E+00  0.00000E+00  9.000E+00
#rwgt            1          24  -33635653.465435602                3    12588127           0
<weights>
-.11145E+08
-.12491E+08
-.95834E+07
-.15230E+08
-.76804E+07
-.91403E+07
-.13907E+08
-.11168E+08
-.11124E+08
-.10818E+08
-.10805E+08
-.10960E+08
-.11001E+08
-.10834E+08
-.10816E+08
-.11226E+08
-.11216E+08
-.11470E+08
-.11515E+08
-.11502E+08
-.11446E+08
-.11512E+08
-.11530E+08
-.11426E+08
-.11328E+08
-.11288E+08
-.11378E+08
-.11443E+08
-.11380E+08
-.11490E+08
-.11524E+08
-.11186E+08
-.11217E+08
-.11137E+08
-.11179E+08
-.11205E+08
-.11105E+08
-.11143E+08
-.11073E+08
-.11169E+08
-.11125E+08
-.11187E+08
-.11102E+08
-.11514E+08
-.10806E+08
</weights>
</event>
<event>
      6  10001 -1.11453E+07  8.94427E-01 -1.00000E+00  2.63472E-01
      21    -1     0     0   502   501  0.000000000E+00  0.000000000E+00  5.536087254E-03  5.536087254E-03  0.000000000E+00  0.00000E+00  9.000E+00
       2    -1     0     0   501     0  0.000000000E+00  0.000000000E+00 -8.614974668E+02  8.614974668E+02  0.000000000E+00  0.00000E+00  9.000E+00
      23     2     1     2     0     0  8.071762481E-02 -3.185326246E-01 -8.562544684E+02  8.562552424E+02  1.103426856E+00  0.00000E+00  9.000E+00
      11     1     3     3     0     0 -3.346318536E-01 -1.098919830E-01 -9.821854719E+01  9.821917871E+01  5.110000000E-04  0.00000E+00  9.000E+00
     -11     1     3     3     0     0  4.153494784E-01 -2.086406416E-01 -7.580359212E+02  7.580360637E+02  5.110000000E-04  0.00000E+00  9.000E+00
       2     1     1     2   502     0 -8.071762481E-02  3.185326246E-01 -5.237462303E+00  5.247760450E+00  0.000000000E+00  0.00000E+00  9.000E+00
#rwgt            1          17  -173486149.98249739                3    12592190           0
<weights>
-.11145E+08
-.10478E+08
-.11914E+08
-.12734E+08
-.95463E+07
-.91702E+07
-.13910E+08
-.11137E+08
-.11153E+08
-.11163E+08
-.11136E+08
-.10911E+08
-.11406E+08
-.11152E+08
-.11145E+08
-.10877E+08
-.11531E+08
-.11598E+08
-.10536E+08
-.10436E+08
-.11662E+08
-.11126E+08
-.11162E+08
-.10909E+08
-.11357E+08
-.11640E+08
-.10851E+08
-.10520E+08
-.11886E+08
-.11046E+08
-.11214E+08
-.11171E+08
-.11116E+08
-.11796E+08
-.10382E+08
-.11043E+08
-.11240E+08
-.11114E+08
-.11189E+08
-.11335E+08
-.10978E+08
-.11114E+08
-.11178E+08
-.11140E+08
-.11151E+08
</weights>
</event>
<event>
      6  10001  1.11453E+07  8.94427E-01 -1.00000E+00  6.03182E-01
      21    -1     0     0   502   501  0.000000000E+00  0.000000000E+00  1.049244955E-01  1.049244955E-01  0.000000000E+00  0.00000E+00  9.000E+00
       4    -1     0     0   501     0  0.000000000E+00  0.000000000E+00 -9.131207412E+01  9.131207412E+01  0.000000000E+00  0.00000E+00  9.000E+00
      23     2     1     2     0     0  1.148908212E-01 -7.153855219E-01 -8.998430514E+01  8.999561725E+01  1.229217991E+00  0.00000E+00  9.000E+00
      11     1     3     3     0     0  5.990390057E-01 -7.148455094E-01 -6.409869073E+01  6.410547563E+01  5.110000000E-04  0.00000E+00  9.000E+00
     -11     1     3     3     0     0 -4.841481845E-01 -5.400124618E-04 -2.588561441E+01  2.589014162E+01  5.110000000E-04  0.00000E+00  9.000E+00
       4     1     1     2   502     0 -1.148908212E-01  7.153855219E-01 -1.222844487E+00  1.421381365E+00  0.000000000E+00  0.00000E+00  9.000E+00
#rwgt            1          19   1421353.9174736158                3    12593871           0
<weights>
0.11145E+08
0.86480E+07
0.15610E+08
0.82993E+07
0.13882E+08
0.10636E+08
0.11660E+08
0.11210E+08
0.11080E+08
0.11056E+08
0.11144E+08
0.10985E+08
0.11280E+08
0.11166E+08
0.11162E+08
0.11169E+08
0.11033E+08
0.11119E+08
0.11042E+08
0.11035E+08
0.11129E+08
0.11104E+08
0.11053E+08
0.11110E+08
0.11123E+08
0.11127E+08
0.11134E+08
0.11104E+08
0.11055E+08
0.11043E+08
0.11096E+08
0.11075E+08
0.11205E+08
0.11171E+08
0.11111E+08
0.11286E+08
0.11015E+08
0.10748E+08
0.11627E+08
0.10999E+08
0.11281E+08
0.11090E+08
0.11205E+08
0.11151E+08
0.11113E+08
</weights>
</event>
<event>
      7  10001  1.11453E+07  9.05787E-01 -1.00000E+00  6.02353E-01
       2    -1     0     0   501     0  0.000000000E+00  0.000000000E+00  4.573006146E-02  4.573006146E-02  0.000000000E+00  0.00000E+00  9.000E+00
      -2    -1     0     0     0   502  0.000000000E+00  0.000000000E+00 -3.196865257E+01  3.196865257E+01  0.000000000E+00  0.00000E+00  9.000E+00
      23     2     1     2     0     0 -3.931921094E-01 -7.964934885E-02 -2.549548063E+01  2.554753333E+01  1.579868021E+00  0.00000E+00  9.000E+00
      11     1     3     3     0     0  2.969119727E-01  1.271865113E-01 -2.027542140E+01  2.027799414E+01  5.110000000E-04  0.00000E+00  9.000E+00
     -11     1     3     3     0     0 -6.901040821E-01 -2.068358602E-01 -5.220059226E+00  5.269539192E+00  5.110000000E-04  0.00000E+00  9.000E+00
      21     1     1     2   511   502  8.470361719E-02  1.388849566E-01 -5.105772400E+00  5.108363293E+00  8.429369702E-08  0.00000E+00  9.000E+00
      21     1     1     2   501   511  3.084884922E-01 -5.923560771E-02 -1.321669479E+00  1.358486002E+00  3.942476677E-08  0.00000E+00  9.000E+00
#rwgt            1          23   382888.85255784285                3    12605996           0
<weights>
0.11145E+08
0.13040E+08
0.94066E+07
0.11318E+08
0.10309E+08
0.12132E+08
0.93627E+07
0.11255E+08
0.11034E+08
0.10817E+08
0.10891E+08
0.10993E+08
0.10942E+08
0.10868E+08
0.10884E+08
0.11071E+08
0.11361E+08
0.11428E+08
0.11386E+08
0.11352E+08
0.11430E+08
0.11400E+08
0.11477E+08
0.11300E+08
0.11355E+08
0.11450E+08
0.10989E+08
0.11402E+08
0.11126E+08
0.11352E+08
0.11407E+08
0.11054E+08
0.11318E+08
0.11284E+08
0.11024E+08
0.10911E+08
0.11383E+08
0.10852E+08
0.11367E+08
0.11140E+08
0.11136E+08
0.11308E+08
0.10971E+08
0.11443E+08
0.10864E+08
</weights>
</event>
<event>
      6  10001  1.11453E+07  8.94427E-01 -1.00000E+00  6.05442E-01
      -2    -1     0     0     0   502  0.000000000E+00  0.000000000E+00  1.854116443E+00  1.854116443E+00  0.000000000E+00  0.00000E+00  9.000E+00
       2    -1     0     0   501     0  0.000000000E+00  0.000000000E+00 -7.014345874E+00  7.014345874E+00  0.000000000E+00  0.00000E+00  9.000E+00
      23     2     1     2     0     0 -5.228704846E-01 -1.222116088E-01 -6.201188430E+00  7.697170356E+00  4.528064082E+00  0.00000E+00  9.000E+00
      11     1     3     3     0     0 -9.432246009E-01 -5.755861618E-01  3.171398093E-01  1.149586881E+00  5.110000000E-04  0.00000E+00  9.000E+00
     -11     1     3     3     0     0  4.203541163E-01  4.533745530E-01 -6.518328239E+00  6.547583475E+00  5.110000000E-04  0.00000E+00  9.000E+00
      21     1     1     2   501   502  5.228704846E-01  1.222116088E-01  1.040958999E+00  1.171291961E+00  2.980232239E-08  0.00000E+00  9.000E+00
#rwgt            1           8   952867.11294389784                3    12608753           0
<weights>
0.11145E+08
0.12661E+08
0.96706E+07
0.11874E+08
0.10016E+08
0.11527E+08
0.10291E+08
0.11092E+08
0.11192E+08
0.10838E+08
0.10817E+08
0.11036E+08
0.10911E+08
0.10845E+08
0.10828E+08
0.11075E+08
0.11435E+08
0.11399E+08
0.11579E+08
0.11576E+08
0.11377E+08
0.11504E+08
0.11507E+08
0.11381E+08
0.11337E+08
0.11391E+08
0.11046E+08
0.11589E+08
0.11141E+08
0.11500E+08
0.11479E+08
0.11166E+08
0.11232E+08
0.11096E+08
0.11248E+08
0.10952E+08
0.11363E+08
0.11117E+08
0.11058E+08
0.11145E+08
0.11140E+08
0.11253E+08
0.11032E+08
0.11493E+08
0.10827E+08
</weights>
</event>
<event>
      7  10001  1.11453E+07  1.56223E+00 -1.00000E+00  4.06915E-01
       2    -1     0     0   501     0  0.000000000E+00  0.000000000E+00  3.034079320E+00  3.034079320E+00  0.000000000E+00  0.00000E+00  9.000E+00
      21    -1     0     0   502   501  0.000000000E+00  0.000000000E+00 -3.637777856E+00  3.637777856E+00  0.000000000E+00  0.00000E+00  9.000E+00
      23     2     1     2     0     0 -8.445577761E-01  2.451028818E-01  2.577878084E+00  3.005256133E+00  1.269943207E+00  0.00000E+00  9.000E+00
      11     1     3     3     0     0 -3.686175896E-01  5.276522016E-01  2.295225414E+00  2.383769229E+00  5.110000000E-04  0.00000E+00  9.000E+00
     -11     1     3     3     0     0 -4.759401864E-01 -2.825493198E-01  2.826526699E-01  6.214869042E-01  5.110000000E-04  0.00000E+00  9.000E+00
       2     1     1     2   511     0  5.962453996E-01  6.550603879E-01 -1.653005671E+00  1.875377412E+00  0.000000000E+00  0.00000E+00  9.000E+00
      21     1     1     2   502   511  2.483123764E-01 -9.001632697E-01 -1.528570949E+00  1.791223631E+00  1.576990671E-07  0.00000E+00  9.000E+00
#rwgt            1          24   3025879.0818030760                3    12611799           0
<weights>
0.11145E+08
0.12445E+08
0.96905E+07
0.12804E+08
0.92943E+07
0.10748E+08
0.11488E+08
0.11209E+08
0.11077E+08
0.10773E+08
0.10765E+08
0.10933E+08
0.10990E+08
0.10792E+08
0.10775E+08
0.11240E+08
0.11225E+08
0.11522E+08
0.11532E+08
0.11529E+08
0.11491E+08
0.11557E+08
0.11580E+08
0.11373E+08
0.11399E+08
0.11354E+08
0.11128E+08
0.11495E+08
0.11388E+08
0.11530E+08
0.11570E+08
0.11192E+08
0.11224E+08
0.11133E+08
0.11185E+08
0.11248E+08
0.11061E+08
0.11122E+08
0.11066E+08
0.11177E+08
0.11119E+08
0.11184E+08
0.11105E+08
0.11561E+08
0.10763E+08
</weights>
</event>
<event>
      6  10001 -1.11453E+07  8.94427E-01 -1.00000E+00  6.56726E-01
      -2    -1     0     0     0   502  0.000000000E+00  0.000000000E+00  6.384861604E+01  6.384861604E+01  0.000000000E+00  0.00000E+00  9.000E+00
      21    -1     0     0   502   501  0.000000000E+00  0.000000000E+00 -1.360539262E-02  1.360539262E-02  0.000000000E+00  0.00000E+00  9.000E+00
      23     2     1     2     0     0 -1.800852029E-01  2.442098517E-01  6.089506302E+01  6.090665699E+01  1.148954381E+00  0.00000E+00  9.000E+00
      11     1     3     3     0     0 -6.111199309E-01  1.960841617E-01  4.802443006E+01  4.802871849E+01  5.110000000E-04  0.00000E+00  9.000E+00
     -11     1     3     3     0     0  4.310347280E-01  4.812568996E-02  1.287063296E+01  1.287793850E+01  5.110000000E-04  0.00000E+00  9.000E+00
      -2     1     1     2     0   501  1.800852029E-01 -2.442098517E-01  2.939947633E+00  2.955564450E+00  0.000000000E+00  0.00000E+00  9.000E+00
#rwgt            1           7  -3433953.5060475394                3    12727706           0
<weights>
-.11144E+08
-.12392E+08
-.97157E+07
-.15066E+08
-.77849E+07
-.91659E+07
-.13908E+08
-.11181E+08
-.11107E+08
-.10841E+08
-.10842E+08
-.10968E+08
-.11021E+08
-.10863E+08
-.10851E+08
-.11222E+08
-.11194E+08
-.11433E+08
-.11467E+08
-.11457E+08
-.11411E+08
-.11465E+08
-.11490E+08
-.11366E+08
-.11327E+08
-.11278E+08
-.11284E+08
-.11403E+08
-.11345E+08
-.11440E+08
-.11478E+08
-.11172E+08
-.11215E+08
-.11139E+08
-.11170E+08
-.11216E+08
-.11090E+08
-.11093E+08
-.11123E+08
-.11156E+08
-.11135E+08
-.11179E+08
-.11108E+08
-.11475E+08
-.10838E+08
</weights>
</event>
<event>
      6  10001 -1.11453E+07  8.94427E-01 -1.00000E+00  4.38728E-01
      21    -1     0     0   502   501  0.000000000E+00  0.000000000E+00  5.552215815E-03  5.552215815E-03  0.000000000E+00  0.00000E+00  9.000E+00
      -2    -1     0     0     0   502  0.000000000E+00  0.000000000E+00 -2.987708329E+02  2.987708329E+02  0.000000000E+00  0.00000E+00  9.000E+00
      23     2     1     2     0     0  8.723770014E-01  4.396823354E-01 -1.887341865E+02  1.887409542E+02  1.265025215E+00  0.00000E+00  9.000E+00
      11     1     3     3     0     0  2.037848713E-01  4.881979382E-01 -2.597193219E+01  2.597731948E+01  5.110000000E-04  0.00000E+00  9.000E+00
     -11     1     3     3     0     0  6.685921301E-01 -4.851560277E-02 -1.627622543E+02  1.627636347E+02  5.110000000E-04  0.00000E+00  9.000E+00
      -2     1     1     2     0   501 -8.723770014E-01 -4.396823354E-01 -1.100310942E+02  1.100354309E+02  0.000000000E+00  0.00000E+00  9.000E+00
#rwgt            1          14  -973288.91851897351                3    12729797           0
<weights>
-.11145E+08
-.13323E+08
-.84108E+07
-.16193E+08
-.67392E+07
-.91702E+07
-.13910E+08
-.10977E+08
-.11305E+08
-.11398E+08
-.11331E+08
-.11148E+08
-.11279E+08
-.11333E+08
-.11345E+08
-.11029E+08
-.11203E+08
-.11024E+08
-.10895E+08
-.10876E+08
-.11044E+08
-.10934E+08
-.10968E+08
-.11096E+08
-.10970E+08
-.10960E+08
-.11201E+08
-.10960E+08
-.10971E+08
-.10986E+08
-.10969E+08
-.11309E+08
-.10915E+08
-.11316E+08
-.10980E+08
-.11267E+08
-.11015E+08
-.11489E+08
-.10787E+08
-.11140E+08
-.11132E+08
-.11318E+08
-.10959E+08
-.10914E+08
-.11369E+08
</weights>
</event>
<event>
      6  10001 -1.11453E+07  8.94427E-01 -1.00000E+00  5.42123E-01
       2    -1     0     0   501     0  0.000000000E+00  0.000000000E+00  1.096751308E+02  1.096751308E+02  0.000000000E+00  0.00000E+00  9.000E+00
      21    -1     0     0   502   501  0.000000000E+00  0.000000000E+00 -7.650775154E-03  7.650775154E-03  0.000000000E+00  0.00000E+00  9.000E+00
      23     2     1     2     0     0 -5.591636093E-02 -2.516655571E-01  1.063773536E+02  1.063825704E+02  1.021496280E+00  0.00000E+00  9.000E+00
      11     1     3     3     0     0  2.717048972E-01 -3.368955856E-01  9.275941895E+01  9.276042867E+01  5.110000000E-04  0.00000E+00  9.000E+00
     -11     1     3     3     0     0 -3.276212581E-01  8.523002852E-02  1.361793469E+01  1.362214173E+01  5.110000000E-04  0.00000E+00  9.000E+00
       2     1     1     2   502     0  5.591636093E-02  2.516655571E-01  3.290126410E+00  3.300211203E+00  0.000000000E+00  0.00000E+00  9.000E+00
#rwgt            1          24  -3399289.8697344083                3    12730722           0
<weights>
-.11145E+08
-.12315E+08
-.98002E+07
-.14977E+08
-.78528E+07
-.91648E+07
-.13909E+08
-.11176E+08
-.11115E+08
-.10829E+08
-.10822E+08
-.10964E+08
-.11012E+08
-.10848E+08
-.10833E+08
-.11225E+08
-.11206E+08
-.11454E+08
-.11491E+08
-.11480E+08
-.11431E+08
-.11491E+08
-.11511E+08
-.11395E+08
-.11329E+08
-.11286E+08
-.11319E+08
-.11426E+08
-.11363E+08
-.11467E+08
-.11503E+08
-.11181E+08
-.11216E+08
-.11138E+08
-.11176E+08
-.11212E+08
-.11097E+08
-.11121E+08
-.11095E+08
-.11163E+08
-.11130E+08
-.11183E+08
-.11106E+08
-.11496E+08
-.10822E+08
</weights>
</event>
<event>
      7  10001  1.11453E+07  1.51334E+01 -1.00000E+00  1.76758E-01
      -4    -1     0     0     0   502  0.000000000E+00  0.000000000E+00  1.144902751E+00  1.144902751E+00  0.000000000E+00  0.00000E+00  9.000E+00
      21    -1     0     0   502   501  0.000000000E+00  0.000000000E+00 -8.382757321E+01  8.382757321E+01  0.000000000E+00  0.00000E+00  9.000E+00
      23     2     1     2     0     0 -4.756071488E-01 -5.554219415E-02 -2.703874852E+00  4.948468444E+00  4.116687216E+00  0.00000E+00  9.000E+00
      11     1     3     3     0     0 -9.409446434E-01 -1.320588798E+00  3.063768681E-01  1.650211696E+00  5.110000000E-04  0.00000E+00  9.000E+00
     -11     1     3     3     0     0  4.653374945E-01  1.265046604E+00 -3.010251720E+00  3.298256748E+00  5.110000000E-04  0.00000E+00  9.000E+00
      -4     1     1     2     0   511  1.237655061E-01 -2.374195605E-01 -7.947421442E-01  8.386304454E-01  0.000000000E+00  0.00000E+00  9.000E+00
      21     1     1     2   511   501  3.518416428E-01  2.929617546E-01 -7.918405347E+01  7.918537708E+01  1.348699152E-06  0.00000E+00  9.000E+00
#rwgt            2          41   3646877.0578409126                3    12732527           0
<weights>
0.11145E+08
0.10291E+08
0.11953E+08
0.12507E+08
0.95772E+07
0.91702E+07
0.13910E+08
0.11179E+08
0.11112E+08
0.11118E+08
0.11166E+08
0.11059E+08
0.11236E+08
0.11176E+08
0.11177E+08
0.11160E+08
0.11066E+08
0.11111E+08
0.11061E+08
0.11055E+08
0.11119E+08
0.11097E+08
0.11071E+08
0.11102E+08
0.11133E+08
0.11142E+08
0.11115E+08
0.11098E+08
0.11075E+08
0.11064E+08
0.11093E+08
0.11100E+08
0.11177E+08
0.11152E+08
0.11132E+08
0.11228E+08
0.11067E+08
0.10924E+08
0.11422E+08
0.11056E+08
0.11227E+08
0.11113E+08
0.11180E+08
0.11124E+08
0.11150E+08
</weights>
</event>
<event>
      6  10001  1.11453E+07  8.94427E-01 -1.00000E+00  5.93996E-01
       1    -1     0     0   501     0  0.000000000E+00  0.000000000E+00  5.784050040E-02  5.784050040E-02  0.000000000E+00  0.00000E+00  9.000E+00
      21    -1     0     0   502   501  0.000000000E+00  0.000000000E+00 -1.884713445E+01  1.884713445E+01  0.000000000E+00  0.00000E+00  9.000E+00
      23     2     1     2     0     0  2.723472463E-02  3.770756939E-01 -6.252571512E+00  6.362553442E+00  1.115575181E+00  0.00000E+00  9.000E+00
      11     1     3     3     0     0  3.941137924E-01 -5.888890845E-02 -9.603041613E-01  1.039700884E+00  5.110000000E-04  0.00000E+00  9.000E+00
     -11     1     3     3     0     0 -3.668790678E-01  4.359646023E-01 -5.292267351E+00  5.322852558E+00  5.110000000E-04  0.00000E+00  9.000E+00
       1     1     1     2   502     0 -2.723472463E-02 -3.770756939E-01 -1.253672244E+01  1.254242151E+01  0.000000000E+00  0.00000E+00  9.000E+00
#rwgt            1          22   185635.58748505474                3    12733082           0
<weights>
0.11145E+08
0.13627E+08
0.86676E+07
0.11982E+08
0.97809E+07
0.12192E+08
0.92709E+07
0.11301E+08
0.10984E+08
0.10485E+08
0.10532E+08
0.10798E+08
0.10870E+08
0.10520E+08
0.10530E+08
0.11281E+08
0.11310E+08
0.11755E+08
0.11842E+08
0.11841E+08
0.11706E+08
0.11801E+08
0.11930E+08
0.11418E+08
0.11699E+08
0.11608E+08
0.10971E+08
0.11726E+08
0.11498E+08
0.11735E+08
0.11835E+08
0.11179E+08
0.11315E+08
0.11149E+08
0.11177E+08
0.11379E+08
0.10945E+08
0.10902E+08
0.11136E+08
0.11209E+08
0.11091E+08
0.11201E+08
0.11088E+08
0.11845E+08
0.10502E+08
</weights>
</event>
<event>
      7  10001  1.11453E+07  8.94427E-01 -1.00000E+00  6.07649E-01
      -3    -1     0     0     0   502  0.000000000E+00  0.000000000E+00  1.720562143E+02  1.720562143E+02  0.000000000E+00  0.00000E+00  9.000E+00
      21    -1     0     0   501   511  0.000000000E+00  0.000000000E+00 -1.444690669E-01  1.444690669E-01  0.000000000E+00  0.00000E+00  9.000E+00
      23     2     1     2     0     0 -8.103980490E-02 -3.566849765E-01  1.703981232E+02  1.704017955E+02  1.057223885E+00  0.00000E+00  9.000E+00
      11     1     3     3     0     0  2.265338622E-01 -6.495325330E-01  9.648665612E+01  9.648910829E+01  5.110000000E-04  0.00000E+00  9.000E+00
     -11     1     3     3     0     0 -3.075736671E-01  2.928475565E-01  7.391146712E+01  7.391268723E+01  5.110000000E-04  0.00000E+00  9.000E+00
      21     1     1     2   501   502 -8.034913883E-03  2.059960079E-01 -6.066933047E-02  2.148945852E-01  4.411756725E-08  0.00000E+00  9.000E+00
      -3     1     1     2     0   511  8.907471878E-02  1.506889687E-01  1.574291363E+00  1.583993297E+00  0.000000000E+00  0.00000E+00  9.000E+00
#rwgt            2          72   387980.68794283271                3    12740303           0
<weights>
0.11145E+08
0.10902E+08
0.11159E+08
0.13250E+08
0.89410E+07
0.91702E+07
0.13910E+08
0.11181E+08
0.11108E+08
0.10827E+08
0.10819E+08
0.10962E+08
0.11011E+08
0.10845E+08
0.10829E+08
0.11227E+08
0.11206E+08
0.11459E+08
0.11491E+08
0.11481E+08
0.11435E+08
0.11495E+08
0.11515E+08
0.11387E+08
0.11334E+08
0.11290E+08
0.11279E+08
0.11430E+08
0.11365E+08
0.11472E+08
0.11507E+08
0.11182E+08
0.11216E+08
0.11138E+08
0.11177E+08
0.11215E+08
0.11093E+08
0.11124E+08
0.11092E+08
0.11165E+08
0.11129E+08
0.11183E+08
0.11106E+08
0.11500E+08
0.10819E+08
</weights>
</event>
<event>
      7  10001  1.11453E+07  1.62072E+00 -1.00000E+00  3.98028E-01
       2    -1     0     0   501     0  0.000000000E+00  0.000000000E+00  4.529305950E-01  4.529305950E-01  0.000000000E+00  0.00000E+00  9.000E+00
      21    -1     0     0   502   501  0.000000000E+00  0.000000000E+00 -1.185556198E+01  1.185556198E+01  0.000000000E+00  0.00000E+00  9.000E+00
      23     2     1     2     0     0 -4.049963717E-01  4.811844941E-03 -1.155255024E+01  1.161605572E+01  1.143366986E+00  0.00000E+00  9.000E+00
      11     1     3     3     0     0 -6.057964291E-01 -3.057867439E-01 -9.871628536E+00  9.894925217E+00  5.110000000E-04  0.00000E+00  9.000E+00
     -11     1     3     3     0     0  2.008000574E-01  3.105985889E-01 -1.680921706E+00  1.721130498E+00  5.110000000E-04  0.00000E+00  9.000E+00
       2     1     1     2   511     0  1.710227262E-01 -5.424155399E-02 -1.999523463E-01  2.686482083E-01  0.000000000E+00  0.00000E+00  9.000E+00
      21     1     1     2   502   511  2.339736456E-01  4.942970905E-02  3.498712029E-01  4.237886520E-01  1.043081284E-07  0.00000E+00  9.000E+00
#rwgt            2         248   27410.595738152828                3    12741238           0
<weights>
0.11145E+08
0.11119E+08
0.10966E+08
0.13514E+08
0.87862E+07
0.91702E+07
0.13910E+08
0.11212E+08
0.11077E+08
0.10903E+08
0.10935E+08
0.10988E+08
0.11081E+08
0.10936E+08
0.10940E+08
0.11210E+08
0.11155E+08
0.11349E+08
0.11355E+08
0.11352E+08
0.11333E+08
0.11357E+08
0.11396E+08
0.11222E+08
0.11337E+08
0.11288E+08
0.11075E+08
0.11320E+08
0.11252E+08
0.11321E+08
0.11369E+08
0.11143E+08
0.11214E+08
0.11145E+08
0.11156E+08
0.11255E+08
0.11049E+08
0.10979E+08
0.11242E+08
0.11128E+08
0.11162E+08
0.11159E+08
0.11131E+08
0.11384E+08
0.10920E+08
</weights>
</event>
<event>
      7  10001  1.11453E+07  3.47988E+00 -1.00000E+00  2.74893E-01
      21    -1     0     0   502   501  0.000000000E+00  0.000000000E+00  3.819472463E+01  3.819472463E+01  0.000000000E+00  0.00000E+00  9.000E+00
       4    -1     0     0   501     0  0.000000000E+00  0.000000000E+00 -1.044337088E-01  1.044337088E-01  0.000000000E+00  0.00000E+00  9.000E+00
      23     2     1     2     0     0  4.150277362E-01 -2.180823467E-01  4.309968577E+00  4.508444715E+00  1.237108191E+00  0.00000E+00  9.000E+00
      11     1     3     3     0     0  7.210414766E-01 -4.242756214E-01  3.717403056E+00  3.810380080E+00  5.110000000E-04  0.00000E+00  9.000E+00
     -11     1     3     3     0     0 -3.060137404E-01  2.061932747E-01  5.925655212E-01  6.980646345E-01  5.110000000E-04  0.00000E+00  9.000E+00
       4     1     1     2   512     0  4.886411560E-02 -1.031441337E-02  1.912913137E-01  1.977029479E-01  0.000000000E+00  0.00000E+00  9.000E+00
      21     1     1     2   502   512 -4.638918518E-01  2.283967601E-01  3.358903103E+01  3.359301067E+01  6.743495762E-07  0.00000E+00  9.000E+00
#rwgt            1          19   1645957.2693292676                3    12743104           0
<weights>
0.11145E+08
0.12554E+08
0.96345E+07
0.13009E+08
0.91480E+07
0.10673E+08
0.11603E+08
0.11167E+08
0.11122E+08
0.10766E+08
0.10729E+08
0.10936E+08
0.10965E+08
0.10773E+08
0.10744E+08
0.11238E+08
0.11251E+08
0.11549E+08
0.11587E+08
0.11576E+08
0.11518E+08
0.11601E+08
0.11608E+08
0.11487E+08
0.11355E+08
0.11326E+08
0.11353E+08
0.11527E+08
0.11437E+08
0.11587E+08
0.11613E+08
0.11212E+08
0.11218E+08
0.11129E+08
0.11196E+08
0.11204E+08
0.11108E+08
0.11232E+08
0.10982E+08
0.11193E+08
0.11105E+08
0.11195E+08
0.11093E+08
0.11591E+08
0.10739E+08
</weights>
</event>
<event>
      6  10001  1.11453E+07  8.94427E-01 -1.00000E+00  6.00256E-01
      -4    -1     0     0     0   502  0.000000000E+00  0.000000000E+00  3.182293684E-02  3.182293684E-02  0.000000000E+00  0.00000E+00  9.000E+00
      21    -1     0     0   502   501  0.000000000E+00  0.000000000E+00 -7.057005579E+01  7.057005579E+01  0.000000000E+00  0.00000E+00  9.000E+00
      23     2     1     2     0     0 -1.424203610E-01 -2.117611161E-01 -3.287876743E+01  3.294154864E+01  2.016718305E+00  0.00000E+00  9.000E+00
      11     1     3     3     0     0 -6.967996411E-01 -8.196691548E-01 -2.419148582E+01  2.421539538E+01  5.110000000E-04  0.00000E+00  9.000E+00
     -11     1     3     3     0     0  5.543792801E-01  6.079080386E-01 -8.687281609E+00  8.726153253E+00  5.110000000E-04  0.00000E+00  9.000E+00
      -4     1     1     2     0   501  1.424203610E-01  2.117611161E-01 -3.765946543E+01  3.766033009E+01  0.000000000E+00  0.00000E+00  9.000E+00
#rwgt            1           3   392992.69045464823                3    12751067           0
<weights>
0.11145E+08
0.12534E+08
0.95570E+07
0.12781E+08
0.92917E+07
0.10846E+08
0.11337E+08
0.11317E+08
0.10977E+08
0.10733E+08
0.10915E+08
0.10888E+08
0.11082E+08
0.10868E+08
0.10902E+08
0.11229E+08
0.11089E+08
0.11363E+08
0.11368E+08
0.11358E+08
0.11353E+08
0.11361E+08
0.11422E+08
0.11147E+08
0.11466E+08
0.11362E+08
0.11024E+08
0.11308E+08
0.11201E+08
0.11253E+08
0.11378E+08
0.11046E+08
0.11320E+08
0.11200E+08
0.11090E+08
0.11401E+08
0.10918E+08
0.10523E+08
0.11799E+08
0.11063E+08
0.11220E+08
0.11145E+08
0.11147E+08
0.11453E+08
0.10835E+08
</weights>
</event>
<event>
      6  10001  1.11453E+07  8.94427E-01 -1.00000E+00  5.99486E-01
       5    -1     0     0   501     0  0.000000000E+00  0.000000000E+00  2.251262730E-01  2.251262730E-01  0.000000000E+00  0.00000E+00  9.000E+00
      21    -1     0     0   502   501  0.000000000E+00  0.000000000E+00 -1.230219618E+01  1.230219618E+01  0.000000000E+00  0.00000E+00  9.000E+00
      23     2     1     2     0     0  3.013832976E-01  6.334555401E-01 -2.448688690E+00  2.873420513E+00  1.329801237E+00  0.00000E+00  9.000E+00
      11     1     3     3     0     0  2.531784673E-01  1.006969835E+00 -2.167682021E+00  2.403525159E+00  5.110000000E-04  0.00000E+00  9.000E+00
     -11     1     3     3     0     0  4.820483031E-02 -3.735142951E-01 -2.810066695E-01  4.698953540E-01  5.110000000E-04  0.00000E+00  9.000E+00
       5     1     1     2   502     0 -3.013832976E-01 -6.334555401E-01 -9.628381220E+00  9.653901943E+00  0.000000000E+00  0.00000E+00  9.000E+00
#rwgt            1          30   116531.44392348122                3    12771760           0
<weights>
0.11145E+08
0.16428E+08
0.59404E+07
0.13215E+08
0.83920E+07
0.13392E+08
0.74294E+07
0.11293E+08
0.10989E+08
0.10408E+08
0.10415E+08
0.10766E+08
0.10809E+08
0.10432E+08
0.10420E+08
0.11302E+08
0.11358E+08
0.11876E+08
0.11947E+08
0.11948E+08
0.11815E+08
0.11940E+08
0.12042E+08
0.11520E+08
0.11727E+08
0.11649E+08
0.10989E+08
0.11852E+08
0.11591E+08
0.11885E+08
0.11972E+08
0.11225E+08
0.11309E+08
0.11135E+08
0.11205E+08
0.11366E+08
0.10960E+08
0.11033E+08
0.10970E+08
0.11244E+08
0.11059E+08
0.11218E+08
0.11070E+08
0.11961E+08
0.10400E+08
</weights>
</event>
<event>
      7  10001  1.11453E+07  8.94427E-01 -1.00000E+00  6.07649E-01
       4    -1     0     0   501     0  0.000000000E+00  0.000000000E+00  3.494203861E+01  3.494203861E+01  0.000000000E+00  0.00000E+00  9.000E+00
      21    -1     0     0   511   502  0.000000000E+00  0.000000000E+00 -2.887869842E-01  2.887869842E-01  0.000000000E+00  0.00000E+00  9.000E+00
      23     2     1     2     0     0 -5.023652626E-01 -1.338927108E-02  3.444126058E+01  3.446865009E+01  1.278615889E+00  0.00000E+00  9.000E+00
      11     1     3     3     0     0 -3.493327915E-01  2.443837551E-01  3.490745123E+00  3.516682897E+00  5.110000000E-04  0.00000E+00  9.000E+00
     -11     1     3     3     0     0 -1.530324712E-01 -2.577730262E-01  3.095051546E+01  3.095196720E+01  5.110000000E-04  0.00000E+00  9.000E+00
      21     1     1     2   501   502  3.189815448E-01  2.310546138E-02 -1.522890380E-01  3.542245607E-01  1.767060343E-08  0.00000E+00  9.000E+00
       4     1     1     2   511     0  1.833837178E-01 -9.716190295E-03  3.642800826E-01  4.079509418E-01  0.000000000E+00  0.00000E+00  9.000E+00
#rwgt            2         309   491876.18748199265                3    12773484           0
<weights>
0.11145E+08
0.11574E+08
0.10363E+08
0.14067E+08
0.83035E+07
0.91702E+07
0.13910E+08
0.11187E+08
0.11101E+08
0.10834E+08
0.10830E+08
0.10964E+08
0.11018E+08
0.10854E+08
0.10840E+08
0.11227E+08
0.11199E+08
0.11449E+08
0.11474E+08
0.11467E+08
0.11426E+08
0.11482E+08
0.11503E+08
0.11365E+08
0.11336E+08
0.11290E+08
0.11236E+08
0.11420E+08
0.11354E+08
0.11457E+08
0.11494E+08
0.11179E+08
0.11216E+08
0.11138E+08
0.11175E+08
0.11221E+08
0.11087E+08
0.11110E+08
0.11106E+08
0.11161E+08
0.11132E+08
0.11181E+08
0.11108E+08
0.11489E+08
0.10828E+08
</weights>
</event>
<event>
      6  10001 -1.11453E+07  8.94427E-01 -1.00000E+00  1.72134E-01
      -2    -1     0     0     0   502  0.000000000E+00  0.000000000E+00  9.476852281E+01  9.476852281E+01  0.000000000E+00  0.00000E+00  9.000E+00
      21    -1     0     0   502   501  0.000000000E+00  0.000000000E+00 -5.959479376E-03  5.959479376E-03  0.000000000E+00  0.00000E+00  9.000E+00
      23     2     1     2     0     0  2.641957130E-01  5.624122754E-02  7.707816965E+01  7.708802582E+01  1.202716258E+00  0.00000E+00  9.000E+00
      11     1     3     3     0     0  5.978915322E-01 -3.076983939E-01  5.617911454E+01  5.618313860E+01  5.110000000E-04  0.00000E+00  9.000E+00
     -11     1     3     3     0     0 -3.336958192E-01  3.639396215E-01  2.089905511E+01  2.090488722E+01  5.110000000E-04  0.00000E+00  9.000E+00
      -2     1     1     2     0   501 -2.641957130E-01 -5.624122754E-02  1.768439368E+01  1.768645647E+01  0.000000000E+00  0.00000E+00  9.000E+00
#rwgt            1           7  -5438226.7649954744                3    12777022           0
<weights>
-.11145E+08
-.12087E+08
-.99922E+07
-.14703E+08
-.80067E+07
-.91620E+07
-.13909E+08
-.11173E+08
-.11118E+08
-.10828E+08
-.10820E+08
-.10964E+08
-.11010E+08
-.10847E+08
-.10831E+08
-.11225E+08
-.11207E+08
-.11455E+08
-.11495E+08
-.11484E+08
-.11432E+08
-.11493E+08
-.11513E+08
-.11402E+08
-.11328E+08
-.11285E+08
-.11341E+08
-.11428E+08
-.11366E+08
-.11470E+08
-.11505E+08
-.11181E+08
-.11217E+08
-.11138E+08
-.11176E+08
-.11210E+08
-.11099E+08
-.11124E+08
-.11092E+08
-.11164E+08
-.11129E+08
-.11184E+08
-.11105E+08
-.11498E+08
-.10820E+08
</weights>
</event>
<event>
      7  10001 -1.11453E+07  1.15028E+00 -1.00000E+00  5.11225E-01
       3    -1     0     0   501     0  0.000000000E+00  0.000000000E+00  3.510644613E+01  3.510644613E+01  0.000000000E+00  0.00000E+00  9.000E+00
      21    -1     0     0   511   501  0.000000000E+00  0.000000000E+00 -4.542757288E+00  4.542757288E+00  0.000000000E+00  0.00000E+00  9.000E+00
      23     2     1     2     0     0 -8.573017093E-01  4.104468915E-01  3.370066248E+01  3.374560057E+01  1.458586084E+00  0.00000E+00  9.000E+00
      11     1     3     3     0     0 -9.241225780E-01 -2.296852738E-01  1.295158950E+01  1.298654799E+01  5.110000000E-04  0.00000E+00  9.000E+00
     -11     1     3     3     0     0  6.682086869E-02  6.401321653E-01  2.074907299E+01  2.075905259E+01  5.110000000E-04  0.00000E+00  9.000E+00
       3     1     1     2   502     0 -2.144893418E-02  3.318014961E-01  1.288692716E+00  1.330894889E+00  0.000000000E+00  0.00000E+00  9.000E+00
      21     1     1     2   511   502  8.787506435E-01 -7.422483876E-01 -4.425666356E+00  4.572707956E+00  8.429369702E-08  0.00000E+00  9.000E+00
#rwgt            1          26  -99452.111959630798                3    12779460           0
<weights>
-.11145E+08
-.90270E+07
-.12856E+08
-.14564E+08
-.82521E+07
-.68826E+07
-.17421E+08
-.11242E+08
-.11040E+08
-.10937E+08
-.10990E+08
-.11003E+08
-.11107E+08
-.10978E+08
-.10992E+08
-.11212E+08
-.11114E+08
-.11298E+08
-.11280E+08
-.11285E+08
-.11285E+08
-.11292E+08
-.11341E+08
-.11123E+08
-.11332E+08
-.11252E+08
-.10878E+08
-.11255E+08
-.11212E+08
-.11250E+08
-.11306E+08
-.11126E+08
-.11211E+08
-.11152E+08
-.11142E+08
-.11268E+08
-.11031E+08
-.10907E+08
-.11313E+08
-.11110E+08
-.11177E+08
-.11153E+08
-.11137E+08
-.11330E+08
-.10967E+08
</weights>
</event>
<event>
      7  10001  1.11453E+07  3.05801E+00 -1.00000E+00  2.89894E-01
      21    -1     0     0   502   511  0.000000000E+00  0.000000000E+00  5.296311429E+01  5.296311429E+01  0.000000000E+00  0.00000E+00  9.000E+00
       2    -1     0     0   501     0  0.000000000E+00  0.000000000E+00 -3.485907442E+02  3.485907442E+02  0.000000000E+00  0.00000E+00  9.000E+00
      23     2     1     2     0     0 -1.529346113E+00 -2.897550909E-01 -3.425620606E+02  3.425670594E+02  1.000988431E+00  0.00000E+00  9.000E+00
      11     1     3     3     0     0 -1.326550127E+00 -4.833941789E-01 -3.219003068E+02  3.219034031E+02  5.110000000E-04  0.00000E+00  9.000E+00
     -11     1     3     3     0     0 -2.027959857E-01  1.936390880E-01 -2.066175382E+01  2.066365635E+01  5.110000000E-04  0.00000E+00  9.000E+00
       2     1     1     2   502     0  1.920969026E+00 -2.743073801E+00 -5.512938980E+00  6.450354415E+00  0.000000000E+00  0.00000E+00  9.000E+00
      21     1     1     2   501   511 -3.916229129E-01  3.032828892E+00  5.244736973E+01  5.253644460E+01  0.000000000E+00  0.00000E+00  9.000E+00
#rwgt            1          17   7219783.6181171136                3    12784308           0
<weights>
0.11145E+08
0.11927E+08
0.10058E+08
0.12670E+08
0.94829E+07
0.10511E+08
0.11852E+08
0.11128E+08
0.11161E+08
0.11165E+08
0.11158E+08
0.11044E+08
0.11261E+08
0.11160E+08
0.11158E+08
0.11359E+08
0.10825E+08
0.11357E+08
0.10819E+08
0.10778E+08
0.11379E+08
0.11106E+08
0.11164E+08
0.11124E+08
0.11122E+08
0.11212E+08
0.11096E+08
0.10901E+08
0.11380E+08
0.11088E+08
0.11167E+08
0.11018E+08
0.11269E+08
0.11353E+08
0.10878E+08
0.11127E+08
0.11160E+08
0.11161E+08
0.11131E+08
0.11205E+08
0.11090E+08
0.11150E+08
0.11140E+08
0.11128E+08
0.11162E+08
</weights>
</event>
<event>
      7  10001  1.11453E+07  1.53687E+00 -1.00000E+00  4.11012E-01
      -2    -1     0     0     0   502  0.000000000E+00  0.000000000E+00  6.097608453E+00  6.097608453E+00  0.000000000E+00  0.00000E+00  9.000E+00
      21    -1     0     0   502   511  0.000000000E+00  0.000000000E+00 -3.986986001E+02  3.986986001E+02  0.000000000E+00  0.00000E+00  9.000E+00
      23     2     1     2     0     0  7.315880208E-01 -6.467410572E-01  1.801182745E+00  2.320804858E+00  1.090128837E+00  0.00000E+00  9.000E+00
      11     1     3     3     0     0  3.508693716E-01 -6.635727183E-01  1.788355329E+00  1.939498160E+00  5.110000000E-04  0.00000E+00  9.000E+00
     -11     1     3     3     0     0  3.807186492E-01  1.683166104E-02  1.282741667E-02  3.813066986E-01  5.110000000E-04  0.00000E+00  9.000E+00
      -2     1     1     2     0   501  7.152907714E-01  1.285646783E-01  4.002409319E+00  4.067855716E+00  0.000000000E+00  0.00000E+00  9.000E+00
      21     1     1     2   501   511 -1.446878792E+00  5.181763789E-01 -3.984045837E+02  3.984075480E+02  5.394796609E-06  0.00000E+00  9.000E+00
#rwgt            1           7   81244.240185464165                3    12801013           0
<weights>
0.11145E+08
0.16763E+08
0.58299E+07
0.10894E+08
0.10079E+08
0.15202E+08
0.46501E+07
0.11109E+08
0.11183E+08
0.10602E+08
0.10477E+08
0.10867E+08
0.10833E+08
0.10574E+08
0.10505E+08
0.11264E+08
0.11385E+08
0.11793E+08
0.11875E+08
0.11853E+08
0.11745E+08
0.11898E+08
0.11870E+08
0.11802E+08
0.11395E+08
0.11422E+08
0.11675E+08
0.11796E+08
0.11643E+08
0.11910E+08
0.11908E+08
0.11295E+08
0.11224E+08
0.11103E+08
0.11250E+08
0.11156E+08
0.11168E+08
0.11531E+08
0.10648E+08
0.11272E+08
0.11036E+08
0.11232E+08
0.11054E+08
0.11843E+08
0.10519E+08
</weights>
</event>
<event>
      6  10001 -1.11453E+07  8.94427E-01 -1.00000E+00  4.18888E-01
      -2    -1     0     0     0   502  0.000000000E+00  0.000000000E+00  6.304870148E+01  6.304870148E+01  0.000000000E+00  0.00000E+00  9.000E+00
      21    -1     0     0   502   501  0.000000000E+00  0.000000000E+00 -2.367372238E-02  2.367372238E-02  0.000000000E+00  0.00000E+00  9.000E+00
      23     2     1     2     0     0  4.860884724E-01 -2.366026540E-01  1.521034993E+01  1.525464127E+01  1.028140271E+00  0.00000E+00  9.000E+00
      11     1     3     3     0     0  3.990656340E-01 -4.413819392E-01  4.189558748E+00  4.231604207E+00  5.110000000E-04  0.00000E+00  9.000E+00
     -11     1     3     3     0     0  8.702283845E-02  2.047792852E-01  1.102079119E+01  1.102303707E+01  5.110000000E-04  0.00000E+00  9.000E+00
      -2     1     1     2     0   501 -4.860884724E-01  2.366026540E-01  4.781467783E+01  4.781773393E+01  0.000000000E+00  0.00000E+00  9.000E+00
#rwgt            1           7  -1322063.7659169231                3    12820842           0
<weights>
-.11145E+08
-.12769E+08
-.93477E+07
-.15523E+08
-.74900E+07
-.91683E+07
-.13910E+08
-.11172E+08
-.11119E+08
-.10824E+08
-.10814E+08
-.10962E+08
-.11006E+08
-.10841E+08
-.10824E+08
-.11226E+08
-.11210E+08
-.11462E+08
-.11503E+08
-.11491E+08
-.11438E+08
-.11501E+08
-.11520E+08
-.11410E+08
-.11329E+08
-.11287E+08
-.11345E+08
-.11434E+08
-.11372E+08
-.11479E+08
-.11513E+08
-.11184E+08
-.11217E+08
-.11138E+08
-.11178E+08
-.11209E+08
-.11101E+08
-.11132E+08
-.11084E+08
-.11166E+08
-.11128E+08
-.11185E+08
-.11104E+08
-.11505E+08
-.10814E+08
</weights>
</event>
<event>
      6  10001 -1.11453E+07  8.94427E-01 -1.00000E+00  3.82583E-01
      -1    -1     0     0     0   502  0.000000000E+00  0.000000000E+00  2.010743154E-02  2.010743154E-02  0.000000000E+00  0.00000E+00  9.000E+00
       1    -1     0     0   501     0  0.000000000E+00  0.000000000E+00 -1.163506922E+02  1.163506922E+02  0.000000000E+00  0.00000E+00  9.000E+00
      23     2     1     2     0     0  2.174082140E-01 -4.604930720E-01 -1.119305874E+02  1.119414321E+02  1.472581666E+00  0.00000E+00  9.000E+00
      11     1     3     3     0     0  2.751922662E-01 -9.239138018E-01 -9.334614390E+01  9.335112174E+01  5.110000000E-04  0.00000E+00  9.000E+00
     -11     1     3     3     0     0 -5.778405220E-02  4.634207298E-01 -1.858444350E+01  1.859031033E+01  5.110000000E-04  0.00000E+00  9.000E+00
      21     1     1     2   501   502 -2.174082140E-01  4.604930720E-01 -4.399997371E+00  4.429367569E+00  8.429369702E-08  0.00000E+00  9.000E+00
#rwgt            1          10  -242928.57754398213                3    12821935           0
<weights>
-.11145E+08
-.12911E+08
-.92377E+07
-.15692E+08
-.74018E+07
-.91702E+07
-.13910E+08
-.11213E+08
-.11078E+08
-.11170E+08
-.11182E+08
-.11161E+08
-.11091E+08
-.11186E+08
-.11189E+08
-.10526E+08
-.11837E+08
-.10785E+08
-.11412E+08
-.11438E+08
-.10746E+08
-.11134E+08
-.11038E+08
-.11279E+08
-.10930E+08
-.10989E+08
-.11205E+08
-.11255E+08
-.10793E+08
-.11136E+08
-.11068E+08
-.11105E+08
-.11168E+08
-.10805E+08
-.11455E+08
-.11088E+08
-.11188E+08
-.11106E+08
-.11202E+08
-.11188E+08
-.11096E+08
-.11223E+08
-.11061E+08
-.11100E+08
-.11183E+08
</weights>
</event>
<event>
      6  10001  1.11453E+07  8.94427E-01 -1.00000E+00  5.62245E-01
       4    -1     0     0   501     0  0.000000000E+00  0.000000000E+00  1.174085424E-01  1.174085424E-01  0.000000000E+00  0.00000E+00  9.000E+00
      -4    -1     0     0     0   502  0.000000000E+00  0.000000000E+00 -1.140713713E+01  1.140713713E+01  0.000000000E+00  0.00000E+00  9.000E+00
      23     2     1     2     0     0  5.648957831E-02 -6.242883153E-01 -3.632577161E+00  3.841779573E+00  1.082001147E+00  0.00000E+00  9.000E+00
      11     1     3     3     0     0 -2.054538344E-01  2.579451005E-01 -1.001305446E+00  1.054210515E+00  5.110000000E-04  0.00000E+00  9.000E+00
     -11     1     3     3     0     0  2.619434127E-01 -8.822334158E-01 -2.631271715E+00  2.787569058E+00  5.110000000E-04  0.00000E+00  9.000E+00
      21     1     1     2   501   502 -5.648957831E-02  6.242883153E-01 -7.657151425E+00  7.682766098E+00  0.000000000E+00  0.00000E+00  9.000E+00
#rwgt            1          27   126254.17196883577                3    12822571           0
<weights>
0.11145E+08
0.14013E+08
0.86788E+07
0.93103E+07
0.11063E+08
0.13929E+08
0.66047E+07
0.11258E+08
0.11026E+08
0.10598E+08
0.10598E+08
0.10838E+08
0.10927E+08
0.10610E+08
0.10606E+08
0.11250E+08
0.11328E+08
0.11689E+08
0.11749E+08
0.11749E+08
0.11647E+08
0.11735E+08
0.11820E+08
0.11413E+08
0.11601E+08
0.11591E+08
0.10973E+08
0.11696E+08
0.11444E+08
0.11694E+08
0.11758E+08
0.11200E+08
0.11271E+08
0.11129E+08
0.11198E+08
0.11342E+08
0.10976E+08
0.11046E+08
0.11020E+08
0.11209E+08
0.11092E+08
0.11182E+08
0.11108E+08
0.11754E+08
0.10590E+08
</weights>
</event>
<event>
      6  10001 -1.11453E+07  8.94427E-01 -1.00000E+00  4.27644E-01
       4    -1     0     0   501     0  0.000000000E+00  0.000000000E+00  1.726686646E+00  1.726686646E+00  0.000000000E+00  0.00000E+00  9.000E+00
      21    -1     0     0   502   501  0.000000000E+00  0.000000000E+00 -1.255912269E+00  1.255912269E+00  0.000000000E+00  0.00000E+00  9.000E+00
      23     2     1     2     0     0  3.171165903E-01 -7.175546933E-02  6.534338521E-01  2.609669615E+00  2.505531464E+00  0.00000E+00  9.000E+00
      11     1     3     3     0     0 -1.073166114E+00 -2.359468250E-01  9.655752308E-02  1.103032198E+00  5.110000000E-04  0.00000E+00  9.000E+00
     -11     1     3     3     0     0  1.390282704E+00  1.641913557E-01  5.568763290E-01  1.506637417E+00  5.110000000E-04  0.00000E+00  9.000E+00
       4     1     1     2   502     0 -3.171165903E-01  7.175546933E-02 -1.826594748E-01  3.729293002E-01  0.000000000E+00  0.00000E+00  9.000E+00
#rwgt            1          28  -916364.80056288675                3    12824479           0
<weights>
-.11145E+08
-.95928E+07
-.12057E+08
-.15559E+08
-.74876E+07
-.67094E+07
-.17687E+08
-.11197E+08
-.11094E+08
-.11097E+08
-.11159E+08
-.11086E+08
-.11184E+08
-.11130E+08
-.11157E+08
-.11164E+08
-.11075E+08
-.11121E+08
-.11131E+08
-.11130E+08
-.11123E+08
-.11103E+08
-.11154E+08
-.11065E+08
-.11206E+08
-.11137E+08
-.11069E+08
-.11088E+08
-.11105E+08
-.11068E+08
-.11114E+08
-.11093E+08
-.11188E+08
-.11161E+08
-.11121E+08
-.11218E+08
-.11076E+08
-.10887E+08
-.11390E+08
-.11084E+08
-.11200E+08
-.11135E+08
-.11156E+08
-.11146E+08
-.11136E+08
</weights>
</event>
<event>
      6  10001 -1.11453E+07  8.94427E-01 -1.00000E+00  3.23157E-01
      -3    -1     0     0     0   502  0.000000000E+00  0.000000000E+00  2.151688639E+02  2.151688639E+02  0.000000000E+00  0.00000E+00  9.000E+00
      21    -1     0     0   502   501  0.000000000E+00  0.000000000E+00 -1.340607794E-02  1.340607794E-02  0.000000000E+00  0.00000E+00  9.000E+00
      23     2     1     2     0     0 -2.016305249E-01  6.067591289E-01  2.043927054E+02  2.044005423E+02  1.671786477E+00  0.00000E+00  9.000E+00
      11     1     3     3     0     0 -1.185523210E-01  5.686539967E-01  2.038002525E+02  2.038010803E+02  5.110000000E-04  0.00000E+00  9.000E+00
     -11     1     3     3     0     0 -8.307820390E-02  3.810513221E-02  5.924529028E-01  5.994620023E-01  5.110000000E-04  0.00000E+00  9.000E+00
      -3     1     1     2     0   501  2.016305249E-01 -6.067591289E-01  1.076275242E+01  1.078172765E+01  0.000000000E+00  0.00000E+00  9.000E+00
#rwgt            1           5  -866711.36167761334                3    12872388           0
<weights>
-.11145E+08
-.11939E+08
-.10152E+08
-.14515E+08
-.81344E+07
-.91677E+07
-.13910E+08
-.11181E+08
-.11110E+08
-.10839E+08
-.10837E+08
-.10968E+08
-.11020E+08
-.10859E+08
-.10847E+08
-.11224E+08
-.11198E+08
-.11440E+08
-.11474E+08
-.11464E+08
-.11418E+08
-.11473E+08
-.11497E+08
-.11373E+08
-.11329E+08
-.11282E+08
-.11292E+08
-.11410E+08
-.11350E+08
-.11448E+08
-.11486E+08
-.11176E+08
-.11216E+08
-.11140E+08
-.11173E+08
-.11216E+08
-.11092E+08
-.11101E+08
-.11115E+08
-.11159E+08
-.11134E+08
-.11181E+08
-.11108E+08
-.11482E+08
-.10835E+08
</weights>
</event>
<event>
      7  10001  1.11453E+07  1.49699E+00 -1.00000E+00  4.28180E-01
      -2    -1     0     0     0   502  0.000000000E+00  0.000000000E+00  3.704917827E+01  3.704917827E+01  0.000000000E+00  0.00000E+00  9.000E+00
      -3    -1     0     0     0   501  0.000000000E+00  0.000000000E+00 -9.678675732E+01  9.678675732E+01  0.000000000E+00  0.00000E+00  9.000E+00
      23     2     1     2     0     0  4.415474365E-01 -3.011858610E-01  3.613333125E+01  3.620126325E+01  2.151315004E+00  0.00000E+00  9.000E+00
      11     1     3     3     0     0 -4.145466770E-02  5.379977383E-01  2.672684182E+00  2.726609810E+00  5.110000000E-04  0.00000E+00  9.000E+00
     -11     1     3     3     0     0  4.830021042E-01 -8.391835993E-01  3.346064707E+01  3.347465344E+01  5.110000000E-04  0.00000E+00  9.000E+00
      -2     1     1     2     0   501 -1.183677447E+00 -9.989012864E-01  1.914713111E-01  1.560627227E+00  0.000000000E+00  0.00000E+00  9.000E+00
      -3     1     1     2     0   502  7.421300108E-01  1.300087147E+00 -9.606238161E+01  9.607404511E+01  0.000000000E+00  0.00000E+00  9.000E+00
#rwgt            1           7   15256592.520733768                3    12873132           0
<weights>
0.11145E+08
0.12650E+08
0.93430E+07
0.13092E+08
0.90388E+07
0.10746E+08
0.11491E+08
0.11187E+08
0.11100E+08
0.10747E+08
0.10720E+08
0.10927E+08
0.10960E+08
0.10756E+08
0.10732E+08
0.11242E+08
0.11251E+08
0.11559E+08
0.11599E+08
0.11591E+08
0.11527E+08
0.11609E+08
0.11631E+08
0.11459E+08
0.11387E+08
0.11346E+08
0.11264E+08
0.11536E+08
0.11437E+08
0.11589E+08
0.11624E+08
0.11207E+08
0.11226E+08
0.11132E+08
0.11192E+08
0.11223E+08
0.11090E+08
0.11192E+08
0.11002E+08
0.11193E+08
0.11104E+08
0.11195E+08
0.11094E+08
0.11605E+08
0.10725E+08
</weights>
</event>
<event>
      6  10001  1.11453E+07  8.94427E-01 -1.00000E+00  6.07233E-01
      21    -1     0     0   502   501  0.000000000E+00  0.000000000E+00  1.019699113E-01  1.019699113E-01  0.000000000E+00  0.00000E+00  9.000E+00
       4    -1     0     0   501     0  0.000000000E+00  0.000000000E+00 -2.061700855E+01  2.061700855E+01  0.000000000E+00  0.00000E+00  9.000E+00
      23     2     1     2     0     0  3.690728635E-01  4.357287342E-01 -1.959467448E+01  1.963586051E+01  1.135638910E+00  0.00000E+00  9.000E+00
      11     1     3     3     0     0  5.545210151E-01  3.318081382E-01 -1.885950984E+01  1.887057768E+01  5.110000000E-04  0.00000E+00  9.000E+00
     -11     1     3     3     0     0 -1.854481516E-01  1.039205960E-01 -7.351646357E-01  7.652828300E-01  5.110000000E-04  0.00000E+00  9.000E+00
       4     1     1     2   502     0 -3.690728635E-01 -4.357287342E-01 -9.203641563E-01  1.083117948E+00  0.000000000E+00  0.00000E+00  9.000E+00
#rwgt            1          19   770585.13270079507                3    12936998           0
<weights>
0.11145E+08
0.17913E+08
0.49432E+07
0.12826E+08
0.90052E+07
0.14837E+08
0.52101E+07
0.11343E+08
0.10943E+08
0.10385E+08
0.10470E+08
0.10732E+08
0.10868E+08
0.10432E+08
0.10463E+08
0.11259E+08
0.11379E+08
0.11804E+08
0.11953E+08
0.11949E+08
0.11757E+08
0.11859E+08
0.12036E+08
0.11422E+08
0.11813E+08
0.11767E+08
0.10905E+08
0.11821E+08
0.11474E+08
0.11771E+08
0.11899E+08
0.11154E+08
0.11362E+08
0.11164E+08
0.11163E+08
0.11466E+08
0.10868E+08
0.10753E+08
0.11265E+08
0.11204E+08
0.11097E+08
0.11179E+08
0.11111E+08
0.11928E+08
0.10422E+08
</weights>
</event>
<event>
      6  10001  1.11453E+07  8.94427E-01 -1.00000E+00  6.06270E-01
      -1    -1     0     0     0   502  0.000000000E+00  0.000000000E+00  6.690243195E-01  6.690243195E-01  0.000000000E+00  0.00000E+00  9.000E+00
      21    -1     0     0   502   501  0.000000000E+00  0.000000000E+00 -1.341282859E+01  1.341282859E+01  0.000000000E+00  0.00000E+00  9.000E+00
      23     2     1     2     0     0 -1.595727137E-01  4.997061392E-01 -2.474097358E+00  3.798757571E+00  2.834472026E+00  0.00000E+00  9.000E+00
      11     1     3     3     0     0 -1.155034750E-01  9.076173725E-01 -2.997320669E+00  3.133854145E+00  5.110000000E-04  0.00000E+00  9.000E+00
     -11     1     3     3     0     0 -4.406923873E-02 -4.079112333E-01  5.232233107E-01  6.649034261E-01  5.110000000E-04  0.00000E+00  9.000E+00
      -1     1     1     2     0   501  1.595727137E-01 -4.997061392E-01 -1.026970691E+01  1.028309534E+01  0.000000000E+00  0.00000E+00  9.000E+00
#rwgt            1           9   498266.85860920750                3    12943718           0
<weights>
0.11145E+08
0.12739E+08
0.94098E+07
0.12698E+08
0.94005E+07
0.11075E+08
0.10986E+08
0.11248E+08
0.11037E+08
0.10690E+08
0.10715E+08
0.10888E+08
0.10969E+08
0.10720E+08
0.10719E+08
0.11252E+08
0.11239E+08
0.11574E+08
0.11607E+08
0.11604E+08
0.11541E+08
0.11603E+08
0.11675E+08
0.11342E+08
0.11514E+08
0.11458E+08
0.11028E+08
0.11543E+08
0.11394E+08
0.11557E+08
0.11625E+08
0.11174E+08
0.11258E+08
0.11143E+08
0.11174E+08
0.11309E+08
0.11004E+08
0.10987E+08
0.11135E+08
0.11175E+08
0.11120E+08
0.11184E+08
0.11106E+08
0.11630E+08
0.10698E+08
</weights>
</event>
<event>
      7  10001 -1.11453E+07  1.26994E+00 -1.00000E+00  4.78081E-01
       2    -1     0     0   501     0  0.000000000E+00  0.000000000E+00  6.083017341E+01  6.083017341E+01  0.000000000E+00  0.00000E+00  9.000E+00
       1    -1     0     0   502     0  0.000000000E+00  0.000000000E+00 -3.646632878E-01  3.646632878E-01  0.000000000E+00  0.00000E+00  9.000E+00
      23     2     1     2     0     0  3.754231084E-01 -3.655844780E-02  5.267286251E+01  5.268961439E+01  1.273868098E+00  0.00000E+00  9.000E+00
      11     1     3     3     0     0 -4.123461351E-01 -1.102582336E-01  2.982962194E+01  2.983267557E+01  5.110000000E-04  0.00000E+00  9.000E+00
     -11     1     3     3     0     0  7.877692435E-01  7.369978575E-02  2.284324058E+01  2.285693882E+01  5.110000000E-04  0.00000E+00  9.000E+00
       2     1     1     2   502     0  8.943527079E-01  1.600444063E-02  6.888419734E+00  6.946254339E+00  0.000000000E+00  0.00000E+00  9.000E+00
       1     1     1     2   501     0 -1.269775816E+00  2.055400717E-02  9.042278783E-01  1.558967975E+00  0.000000000E+00  0.00000E+00  9.000E+00
#rwgt            1          24  -2372381.0002788915                3    12961850           0
<weights>
-.11145E+08
-.84495E+07
-.13675E+08
-.14812E+08
-.82261E+07
-.62095E+07
-.18455E+08
-.11271E+08
-.11007E+08
-.10995E+08
-.11082E+08
-.11026E+08
-.11157E+08
-.11050E+08
-.11079E+08
-.11204E+08
-.11062E+08
-.11212E+08
-.11166E+08
-.11178E+08
-.11204E+08
-.11185E+08
-.11245E+08
-.10986E+08
-.11327E+08
-.11226E+08
-.10674E+08
-.11160E+08
-.11132E+08
-.11131E+08
-.11199E+08
-.11095E+08
-.11210E+08
-.11161E+08
-.11123E+08
-.11294E+08
-.11001E+08
-.10795E+08
-.11443E+08
-.11081E+08
-.11203E+08
-.11139E+08
-.11153E+08
-.11239E+08
-.11047E+08
</weights>
</event>
<event>
      6  10001 -1.11453E+07  8.94427E-01 -1.00000E+00  5.90985E-01
      -5    -1     0     0     0   502  0.000000000E+00  0.000000000E+00  5.502654552E-02  5.502654552E-02  0.000000000E+00  0.00000E+00  9.000E+00
       5    -1     0     0   501     0  0.000000000E+00  0.000000000E+00 -2.411337577E+01  2.411337577E+01  0.000000000E+00  0.00000E+00  9.000E+00
      23     2     1     2     0     0 -4.725254321E-02 -3.862893337E-01 -7.680438277E+00  7.785868346E+00  1.216207846E+00  0.00000E+00  9.000E+00
      11     1     3     3     0     0 -4.941493749E-01 -3.874668417E-02 -5.823306602E+00  5.844363519E+00  5.110000000E-04  0.00000E+00  9.000E+00
     -11     1     3     3     0     0  4.468968317E-01 -3.475426496E-01 -1.857131676E+00  1.941504827E+00  5.110000000E-04  0.00000E+00  9.000E+00
      21     1     1     2   501   502  4.725254321E-02  3.862893337E-01 -1.637791095E+01  1.638253397E+01  4.129530925E-07  0.00000E+00  9.000E+00
#rwgt            1           2  -27527.822686174790                3    13012197           0
<weights>
-.11145E+08
-.94607E+07
-.11707E+08
-.17747E+08
-.67048E+07
-.56310E+07
-.19343E+08
-.11165E+08
-.11127E+08
-.11160E+08
-.11193E+08
-.11085E+08
-.11242E+08
-.11201E+08
-.11205E+08
-.11158E+08
-.11058E+08
-.11085E+08
-.11039E+08
-.11034E+08
-.11093E+08
-.11067E+08
-.11048E+08
-.11091E+08
-.11109E+08
-.11105E+08
-.11127E+08
-.11067E+08
-.11072E+08
-.11043E+08
-.11065E+08
-.11108E+08
-.11160E+08
-.11148E+08
-.11135E+08
-.11202E+08
-.11091E+08
-.10971E+08
-.11374E+08
-.11058E+08
-.11225E+08
-.11117E+08
-.11176E+08
-.11090E+08
-.11184E+08
</weights>
</event>
<event>
      6  10001 -1.11453E+07  8.94427E-01 -1.00000E+00  1.65972E-01
      21    -1     0     0   502   501  0.000000000E+00  0.000000000E+00  2.232730237E+01  2.232730237E+01  0.000000000E+00  0.00000E+00  9.000E+00
      -2    -1     0     0     0   502  0.000000000E+00  0.000000000E+00 -2.366655512E-02  2.366655512E-02  0.000000000E+00  0.00000E+00  9.000E+00
      23     2     1     2     0     0 -2.326207086E-01 -1.232467377E-01  1.841157225E+01  1.845001251E+01  1.160890513E+00  0.00000E+00  9.000E+00
      11     1     3     3     0     0 -2.701469201E-01 -2.667454072E-01  1.888916801E+00  1.926691312E+00  5.110000000E-04  0.00000E+00  9.000E+00
     -11     1     3     3     0     0  3.752621146E-02  1.434986695E-01  1.652265545E+01  1.652332120E+01  5.110000000E-04  0.00000E+00  9.000E+00
      -2     1     1     2     0   501  2.326207086E-01  1.232467377E-01  3.892063560E+00  3.900956409E+00  0.000000000E+00  0.00000E+00  9.000E+00
#rwgt            1          14  -2593164.1853991323                3    13012860           0
<weights>
-.11145E+08
-.12920E+08
-.92088E+07
-.15704E+08
-.73786E+07
-.91696E+07
-.13910E+08
-.11119E+08
-.11192E+08
-.10815E+08
-.10796E+08
-.10962E+08
-.10992E+08
-.10830E+08
-.10807E+08
-.11219E+08
-.11232E+08
-.11480E+08
-.11519E+08
-.11505E+08
-.11457E+08
-.11522E+08
-.11535E+08
-.11443E+08
-.11319E+08
-.11298E+08
-.11362E+08
-.11457E+08
-.11378E+08
-.11503E+08
-.11531E+08
-.11183E+08
-.11223E+08
-.11136E+08
-.11182E+08
-.11172E+08
-.11143E+08
-.11156E+08
-.11061E+08
-.11171E+08
-.11123E+08
-.11192E+08
-.11096E+08
-.11521E+08
-.10800E+08
</weights>
</event>
<event>
      6  10001 -1.11453E+07  8.94427E-01 -1.00000E+00  4.27802E-01
      21    -1     0     0   502   501  0.000000000E+00  0.000000000E+00  7.882229891E-01  7.882229891E-01  0.000000000E+00  0.00000E+00  9.000E+00
       4    -1     0     0   501     0  0.000000000E+00  0.000000000E+00 -2.387233269E+00  2.387233269E+00  0.000000000E+00  0.00000E+00  9.000E+00
      23     2     1     2     0     0  2.197562441E-01 -3.671163100E-01 -1.687101639E+00  2.738618440E+00  2.114391598E+00  0.00000E+00  9.000E+00
      11     1     3     3     0     0 -5.954356266E-01 -5.930751239E-01 -1.695824904E+00  1.892644724E+00  5.110000000E-04  0.00000E+00  9.000E+00
     -11     1     3     3     0     0  8.151918706E-01  2.259588140E-01  8.723264408E-03  8.459737159E-01  5.110000000E-04  0.00000E+00  9.000E+00
       4     1     1     2   502     0 -2.197562441E-01  3.671163100E-01  8.809135897E-02  4.368378182E-01  0.000000000E+00  0.00000E+00  9.000E+00
#rwgt            1          19  -440782.75501697569                3    13015761           0
<weights>
-.11145E+08
-.87028E+07
-.12044E+08
-.19682E+08
-.46101E+07
-.34516E+07
-.22688E+08
-.11213E+08
-.11078E+08
-.11021E+08
-.11099E+08
-.11043E+08
-.11159E+08
-.11072E+08
-.11097E+08
-.11185E+08
-.11076E+08
-.11178E+08
-.11192E+08
-.11187E+08
-.11177E+08
-.11165E+08
-.11220E+08
-.11097E+08
-.11259E+08
-.11182E+08
-.11090E+08
-.11136E+08
-.11137E+08
-.11118E+08
-.11178E+08
-.11092E+08
-.11208E+08
-.11164E+08
-.11120E+08
-.11247E+08
-.11052E+08
-.10823E+08
-.11431E+08
-.11078E+08
-.11205E+08
-.11142E+08
-.11149E+08
-.11216E+08
-.11068E+08
</weights>
</event>
<event>
      7  10001  1.11453E+07  1.78327E+00 -1.00000E+00  3.76654E-01
       2    -1     0     0   501     0  0.000000000E+00  0.000000000E+00  4.823611051E+02  4.823611051E+02  0.000000000E+00  0.00000E+00  9.000E+00
      21    -1     0     0   511   502  0.000000000E+00  0.000000000E+00 -2.430435701E-01  2.430435701E-01  0.000000000E+00  0.00000E+00  9.000E+00
      23     2     1     2     0     0 -5.805571700E-01  2.202461789E-01  4.050827619E+02  4.051233166E+02  5.698426786E+00  0.00000E+00  9.000E+00
      11     1     3     3     0     0  7.343065870E-01 -2.526747935E+00  1.600252012E+02  1.600468328E+02  5.110000000E-04  0.00000E+00  9.000E+00
     -11     1     3     3     0     0 -1.314863757E+00  2.746994114E+00  2.450575607E+02  2.450764838E+02  5.110000000E-04  0.00000E+00  9.000E+00
      21     1     1     2   501   502  1.915487470E+00  9.621342449E-01  5.214407303E+00  5.637804366E+00  4.539354507E-07  0.00000E+00  9.000E+00
       2     1     1     2   511     0 -1.334930300E+00 -1.182380424E+00  7.182089232E+01  7.184302775E+01  0.000000000E+00  0.00000E+00  9.000E+00
#rwgt            2         249   3401512.3409324330                3    13022197           0
<weights>
0.11145E+08
0.10380E+08
0.11834E+08
0.12615E+08
0.94818E+07
0.91702E+07
0.13910E+08
0.11185E+08
0.11103E+08
0.10832E+08
0.10827E+08
0.10964E+08
0.11016E+08
0.10852E+08
0.10837E+08
0.11227E+08
0.11201E+08
0.11452E+08
0.11478E+08
0.11470E+08
0.11428E+08
0.11485E+08
0.11506E+08
0.11371E+08
0.11336E+08
0.11290E+08
0.11246E+08
0.11422E+08
0.11357E+08
0.11461E+08
0.11498E+08
0.11180E+08
0.11216E+08
0.11138E+08
0.11175E+08
0.11219E+08
0.11089E+08
0.11114E+08
0.11102E+08
0.11162E+08
0.11132E+08
0.11181E+08
0.11108E+08
0.11492E+08
0.10826E+08
</weights>
</event>
<event>
      6  10001 -1.11453E+07  8.94427E-01 -1.00000E+00  6.44882E-01
      -4    -1     0     0     0   502  0.000000000E+00  0.000000000E+00  8.904620177E+01  8.904620177E+01  0.000000000E+00  0.00000E+00  9.000E+00
       4    -1     0     0   501     0  0.000000000E+00  0.000000000E+00 -1.039294881E-02  1.039294881E-02  0.000000000E+00  0.00000E+00  9.000E+00
      23     2     1     2     0     0 -5.089806655E-01  3.819167126E-01  5.903705860E+01  5.905109628E+01  1.119268558E+00  0.00000E+00  9.000E+00
      11     1     3     3     0     0  3.245293707E-01 -3.868774438E-02  2.121021426E+01  2.121273215E+01  5.110000000E-04  0.00000E+00  9.000E+00
     -11     1     3     3     0     0 -8.335100363E-01  4.206044570E-01  3.782684434E+01  3.783836413E+01  5.110000000E-04  0.00000E+00  9.000E+00
      21     1     1     2   501   502  5.089806655E-01 -3.819167126E-01  2.999875022E+01  3.000549844E+01  3.371747881E-07  0.00000E+00  9.000E+00
#rwgt            1           4  -51546.868129058945                3    13022296           0
<weights>
-.11145E+08
-.13561E+08
-.86037E+07
-.16497E+08
-.68942E+07
-.91620E+07
-.13909E+08
-.11175E+08
-.11116E+08
-.10819E+08
-.10807E+08
-.10959E+08
-.11004E+08
-.10836E+08
-.10818E+08
-.11228E+08
-.11213E+08
-.11469E+08
-.11507E+08
-.11496E+08
-.11445E+08
-.11509E+08
-.11527E+08
-.11410E+08
-.11333E+08
-.11292E+08
-.11322E+08
-.11442E+08
-.11376E+08
-.11487E+08
-.11521E+08
-.11186E+08
-.11217E+08
-.11137E+08
-.11179E+08
-.11211E+08
-.11099E+08
-.11139E+08
-.11077E+08
-.11168E+08
-.11126E+08
-.11185E+08
-.11103E+08
-.11512E+08
-.10808E+08
</weights>
</event>
<event>
      6  10001 -1.11453E+07  8.94427E-01 -1.00000E+00  1.61585E-01
      21    -1     0     0   502   501  0.000000000E+00  0.000000000E+00  6.605775777E-03  6.605775777E-03  0.000000000E+00  0.00000E+00  9.000E+00
      -4    -1     0     0     0   502  0.000000000E+00  0.000000000E+00 -1.174264288E+02  1.174264288E+02  0.000000000E+00  0.00000E+00  9.000E+00
      23     2     1     2     0     0 -2.256770843E-01  2.278159882E-01 -9.322791386E+01  9.323900021E+01  1.401572583E+00  0.00000E+00  9.000E+00
      11     1     3     3     0     0 -4.624047343E-01  4.449558552E-01 -1.982464333E+01  1.983502678E+01  5.110000000E-04  0.00000E+00  9.000E+00
     -11     1     3     3     0     0  2.367276500E-01 -2.171398670E-01 -7.340327053E+01  7.340397343E+01  5.110000000E-04  0.00000E+00  9.000E+00
      -4     1     1     2     0   501  2.256770843E-01 -2.278159882E-01 -2.419190920E+01  2.419403441E+01  0.000000000E+00  0.00000E+00  9.000E+00
#rwgt            1          12  -2071146.0815545176                3    13022670           0
<weights>
-.11145E+08
-.12581E+08
-.95559E+07
-.15291E+08
-.76567E+07
-.91702E+07
-.13910E+08
-.11120E+08
-.11168E+08
-.11288E+08
-.11272E+08
-.11065E+08
-.11391E+08
-.11334E+08
-.11313E+08
-.11130E+08
-.11029E+08
-.10982E+08
-.10885E+08
-.10882E+08
-.11000E+08
-.10960E+08
-.10873E+08
-.11103E+08
-.10923E+08
-.10991E+08
-.11193E+08
-.10997E+08
-.10991E+08
-.10949E+08
-.10943E+08
-.11122E+08
-.11108E+08
-.11135E+08
-.11146E+08
-.11182E+08
-.11106E+08
-.11013E+08
-.11349E+08
-.10981E+08
-.11299E+08
-.11064E+08
-.11232E+08
-.10968E+08
-.11291E+08
</weights>
</event>
<event>
      7  10001  1.11453E+07  4.05077E+00 -1.00000E+00  2.59048E-01
       4    -1     0     0   501     0  0.000000000E+00  0.000000000E+00  2.986884327E-02  2.986884327E-02  0.000000000E+00  0.00000E+00  9.000E+00
      21    -1     0     0   502   501  0.000000000E+00  0.000000000E+00 -1.787095843E+02  1.787095843E+02  0.000000000E+00  0.00000E+00  9.000E+00
      23     2     1     2     0     0  2.706004393E-01  2.934815716E-01 -2.230101811E+01  2.235065685E+01  1.434258389E+00  0.00000E+00  9.000E+00
      11     1     3     3     0     0  3.535279950E-01  7.110286036E-01 -7.202815050E+00  7.246453521E+00  5.110000000E-04  0.00000E+00  9.000E+00
     -11     1     3     3     0     0 -8.292755568E-02 -4.175470320E-01 -1.509820305E+01  1.510420333E+01  5.110000000E-04  0.00000E+00  9.000E+00
       4     1     1     2   511     0  1.351180889E-01  1.299130500E-01 -1.950545726E+00  1.959531303E+00  0.000000000E+00  0.00000E+00  9.000E+00
      21     1     1     2   502   511 -4.057185282E-01 -4.233946215E-01 -1.544281516E+02  1.544292650E+02  1.907348633E-06  0.00000E+00  9.000E+00
#rwgt            2         308   268150.05132320279                3    13025938           0
<weights>
0.11145E+08
0.10626E+08
0.11552E+08
0.12914E+08
0.92563E+07
0.91702E+07
0.13910E+08
0.11071E+08
0.11217E+08
0.11400E+08
0.11329E+08
0.11152E+08
0.11384E+08
0.11392E+08
0.11368E+08
0.11100E+08
0.11069E+08
0.10934E+08
0.10858E+08
0.10858E+08
0.10954E+08
0.10914E+08
0.10833E+08
0.11101E+08
0.10867E+08
0.10973E+08
0.11201E+08
0.10970E+08
0.10983E+08
0.10939E+08
0.10896E+08
0.11150E+08
0.11065E+08
0.11115E+08
0.11167E+08
0.11107E+08
0.11172E+08
0.11223E+08
0.11111E+08
0.11030E+08
0.11253E+08
0.11072E+08
0.11224E+08
0.10895E+08
0.11370E+08
</weights>
</event>
<event>
      6  10001  1.11453E+07  8.94427E-01 -1.00000E+00  6.00402E-01
      -4    -1     0     0     0   502  0.000000000E+00  0.000000000E+00  6.674122893E+01  6.674122893E+01  0.000000000E+00  0.00000E+00  9.000E+00
      21    -1     0     0   502   501  0.000000000E+00  0.000000000E+00 -2.977544330E-02  2.977544330E-02  0.000000000E+00  0.00000E+00  9.000E+00
      23     2     1     2     0     0  1.331858158E-01  3.656652414E-01  6.317136527E+01  6.320958975E+01  2.163191366E+00  0.00000E+00  9.000E+00
      11     1     3     3     0     0 -2.913876142E-01  9.813150848E-01  5.333987492E+01  5.334969674E+01  5.110000000E-04  0.00000E+00  9.000E+00
     -11     1     3     3     0     0  4.245734300E-01 -6.156498434E-01  9.831490347E+00  9.859893003E+00  5.110000000E-04  0.00000E+00  9.000E+00
      -4     1     1     2     0   501 -1.331858158E-01 -3.656652414E-01  3.540088226E+00  3.561414632E+00  0.000000000E+00  0.00000E+00  9.000E+00
#rwgt            1           3   131067.25132724644                3    13026436           0
<weights>
0.11145E+08
0.25299E+08
-.16374E+07
0.14320E+08
0.78040E+07
0.19523E+08
-.19828E+07
0.11009E+08
0.11313E+08
0.10606E+08
0.10478E+08
0.10888E+08
0.10807E+08
0.10579E+08
0.10505E+08
0.11244E+08
0.11405E+08
0.11763E+08
0.11963E+08
0.11908E+08
0.11723E+08
0.11896E+08
0.11866E+08
0.12029E+08
0.11304E+08
0.11336E+08
0.12544E+08
0.11769E+08
0.11682E+08
0.11912E+08
0.11906E+08
0.11287E+08
0.11234E+08
0.11114E+08
0.11242E+08
0.11075E+08
0.11258E+08
0.11555E+08
0.10661E+08
0.11272E+08
0.11035E+08
0.11250E+08
0.11036E+08
0.11840E+08
0.10522E+08
</weights>
</event>
<event>
      7  10001  1.11453E+07  4.30023E+00 -1.00000E+00  2.53367E-01
       3    -1     0     0   501     0  0.000000000E+00  0.000000000E+00  3.306361268E-01  3.306361268E-01  0.000000000E+00  0.00000E+00  9.000E+00
      21    -1     0     0   502   501  0.000000000E+00  0.000000000E+00 -7.117799682E+01  7.117799682E+01  0.000000000E+00  0.00000E+00  9.000E+00
      23     2     1     2     0     0  1.850532756E+00 -1.767803200E+00 -5.260894322E+01  5.296379228E+01  5.559926780E+00  0.00000E+00  9.000E+00
      11     1     3     3     0     0  9.279782020E-01 -1.368145915E+00 -3.794364323E+00  4.138860673E+00  5.110000000E-04  0.00000E+00  9.000E+00
     -11     1     3     3     0     0  9.225545540E-01 -3.996572849E-01 -4.881457890E+01  4.882493161E+01  5.110000000E-04  0.00000E+00  9.000E+00
       3     1     1     2   511     0  1.775099404E-02  4.179876045E-01 -9.448397962E+00  9.457655776E+00  0.000000000E+00  0.00000E+00  9.000E+00
      21     1     1     2   502   511 -1.868283750E+00  1.349815596E+00 -8.790019503E+00  9.087184887E+00  2.064765462E-07  0.00000E+00  9.000E+00
#rwgt            1          26   96900.658230432135                3    13046200           0
<weights>
0.11145E+08
0.11806E+08
0.10345E+08
0.12251E+08
0.98418E+07
0.10674E+08
0.11601E+08
0.11256E+08
0.11036E+08
0.10895E+08
0.11016E+08
0.10961E+08
0.11142E+08
0.10992E+08
0.11013E+08
0.11209E+08
0.11075E+08
0.11267E+08
0.11241E+08
0.11232E+08
0.11264E+08
0.11254E+08
0.11286E+08
0.11131E+08
0.11331E+08
0.11273E+08
0.11060E+08
0.11219E+08
0.11157E+08
0.11180E+08
0.11264E+08
0.11071E+08
0.11259E+08
0.11184E+08
0.11104E+08
0.11323E+08
0.10985E+08
0.10707E+08
0.11619E+08
0.11065E+08
0.11218E+08
0.11137E+08
0.11155E+08
0.11318E+08
0.10965E+08
</weights>
</event>
<event>
      6  10001 -1.11453E+07  8.94427E-01 -1.00000E+00  4.77014E-01
      21    -1     0     0   502   501  0.000000000E+00  0.000000000E+00  6.759917292E-03  6.759917292E-03  0.000000000E+00  0.00000E+00  9.000E+00
       2    -1     0     0   501     0  0.000000000E+00  0.000000000E+00 -2.510115445E+02  2.510115445E+02  0.000000000E+00  0.00000E+00  9.000E+00
      23     2     1     2     0     0  3.825215418E-02  4.170440206E-01 -1.228330278E+02  1.228458634E+02  1.725704846E+00  0.00000E+00  9.000E+00
      11     1     3     3     0     0  3.998717301E-01  8.041783100E-01 -3.593641803E+01  3.594763888E+01  5.110000000E-04  0.00000E+00  9.000E+00
     -11     1     3     3     0     0 -3.616195759E-01 -3.871342894E-01 -8.689660973E+01  8.689822452E+01  5.110000000E-04  0.00000E+00  9.000E+00
       2     1     1     2   502     0 -3.825215418E-02 -4.170440206E-01 -1.281717568E+02  1.281724410E+02  0.000000000E+00  0.00000E+00  9.000E+00
#rwgt            1          17  -3107928.4540320355                3    13062014           0
<weights>
-.11145E+08
-.12118E+08
-.10011E+08
-.14728E+08
-.80212E+07
-.91702E+07
-.13910E+08
-.11127E+08
-.11162E+08
-.11172E+08
-.11165E+08
-.11075E+08
-.11233E+08
-.11168E+08
-.11166E+08
-.11326E+08
-.10867E+08
-.11290E+08
-.10890E+08
-.10860E+08
-.11305E+08
-.11103E+08
-.11148E+08
-.11153E+08
-.11086E+08
-.11169E+08
-.11121E+08
-.10968E+08
-.11287E+08
-.11095E+08
-.11149E+08
-.11044E+08
-.11239E+08
-.11288E+08
-.10957E+08
-.11132E+08
-.11154E+08
-.11170E+08
-.11121E+08
-.11182E+08
-.11110E+08
-.11158E+08
-.11132E+08
-.11120E+08
-.11169E+08
</weights>
</event>
<event>
      7  10001  1.11453E+07  2.32559E+00 -1.00000E+00  3.28104E-01
      21    -1     0     0   501   511  0.000000000E+00  0.000000000E+00  6.078635438E-02  6.078635438E-02  0.000000000E+00  0.00000E+00  9.000E+00
      -2    -1     0     0     0   502  0.000000000E+00  0.000000000E+00 -4.798288652E+02  4.798288652E+02  0.000000000E+00  0.00000E+00  9.000E+00
      23     2     1     2     0     0  9.967138801E-01  8.920903580E-01 -3.711621013E+02  3.711658687E+02  1.003651455E+00  0.00000E+00  9.000E+00
      11     1     3     3     0     0  1.074488199E+00  1.044398957E+00 -3.260512625E+02  3.260547057E+02  5.110000000E-04  0.00000E+00  9.000E+00
     -11     1     3     3     0     0 -7.777431869E-02 -1.523085988E-01 -4.511083883E+01  4.511116300E+01  5.110000000E-04  0.00000E+00  9.000E+00
      21     1     1     2   501   502 -2.623295707E+00  7.700233606E-01 -5.806291831E+01  5.812724920E+01  0.000000000E+00  0.00000E+00  9.000E+00
      -2     1     1     2     0   511  1.626581827E+00 -1.662113719E+00 -5.054305915E+01  5.059653367E+01  0.000000000E+00  0.00000E+00  9.000E+00
#rwgt            2         161   278217.30443991610                3    13063968           0
<weights>
0.11145E+08
0.10486E+08
0.11730E+08
0.12745E+08
0.93985E+07
0.91702E+07
0.13910E+08
0.10865E+08
0.11416E+08
0.11470E+08
0.11363E+08
0.11151E+08
0.11318E+08
0.11333E+08
0.11375E+08
0.11032E+08
0.11216E+08
0.11002E+08
0.10922E+08
0.10909E+08
0.11018E+08
0.10902E+08
0.11002E+08
0.11062E+08
0.11008E+08
0.10922E+08
0.11224E+08
0.10929E+08
0.10991E+08
0.10978E+08
0.10963E+08
0.11411E+08
0.10810E+08
0.11332E+08
0.10968E+08
0.11468E+08
0.10847E+08
0.11686E+08
0.10605E+08
0.11175E+08
0.11100E+08
0.11340E+08
0.10936E+08
0.10880E+08
0.11416E+08
</weights>
</event>
<event>
      6  10001 -1.11453E+07  8.94427E-01 -1.00000E+00  3.16451E-01
      21    -1     0     0   502   501  0.000000000E+00  0.000000000E+00  2.401471282E-02  2.401471282E-02  0.000000000E+00  0.00000E+00  9.000E+00
       2    -1     0     0   501     0  0.000000000E+00  0.000000000E+00 -1.497001680E+02  1.497001680E+02  0.000000000E+00  0.00000E+00  9.000E+00
      23     2     1     2     0     0  1.054100328E+00 -6.544605185E-01 -1.228398951E+02  1.228592576E+02  1.793853898E+00  0.00000E+00  9.000E+00
      11     1     3     3     0     0  1.036996848E+00 -1.068997614E-01 -1.125221375E+02  1.125269666E+02  5.110000000E-04  0.00000E+00  9.000E+00
     -11     1     3     3     0     0  1.710348020E-02 -5.475607570E-01 -1.031775759E+01  1.033229100E+01  5.110000000E-04  0.00000E+00  9.000E+00
       2     1     1     2   502     0 -1.054100328E+00  6.544605185E-01 -2.683625820E+01  2.686492510E+01  0.000000000E+00  0.00000E+00  9.000E+00
#rwgt            1          17  -22640433.610308480                3    13066043           0
<weights>
-.11145E+08
-.12347E+08
-.97803E+07
-.15007E+08
-.78365E+07
-.91702E+07
-.13910E+08
-.11137E+08
-.11153E+08
-.11169E+08
-.11172E+08
-.11134E+08
-.11164E+08
-.11174E+08
-.11173E+08
-.11255E+08
-.10955E+08
-.11157E+08
-.11048E+08
-.11042E+08
-.11159E+08
-.11106E+08
-.11123E+08
-.11209E+08
-.11028E+08
-.11088E+08
-.11167E+08
-.11116E+08
-.11091E+08
-.11113E+08
-.11120E+08
-.11093E+08
-.11186E+08
-.11158E+08
-.11120E+08
-.11140E+08
-.11145E+08
-.11161E+08
-.11132E+08
-.11132E+08
-.11153E+08
-.11179E+08
-.11109E+08
-.11114E+08
-.11173E+08
</weights>
</event>
<event>
      6  10001 -1.11453E+07  8.94427E-01 -1.00000E+00  4.30026E-01
      21    -1     0     0   502   501  0.000000000E+00  0.000000000E+00  9.433496986E-03  9.433496986E-03  0.000000000E+00  0.00000E+00  9.000E+00
       2    -1     0     0   501     0  0.000000000E+00  0.000000000E+00 -2.840697447E+02  2.840697447E+02  0.000000000E+00  0.00000E+00  9.000E+00
      23     2     1     2     0     0  3.524408384E-01  2.459627004E-01 -2.761429239E+02  2.761501345E+02  1.948757002E+00  0.00000E+00  9.000E+00
      11     1     3     3     0     0 -1.905473149E-01  3.376188276E-01 -1.131734799E+01  1.132398608E+01  5.110000000E-04  0.00000E+00  9.000E+00
     -11     1     3     3     0     0  5.429881533E-01 -9.165612720E-02 -2.648255759E+02  2.648261484E+02  5.110000000E-04  0.00000E+00  9.000E+00
       2     1     1     2   502     0 -3.524408384E-01 -2.459627004E-01 -7.917387351E+00  7.929043742E+00  0.000000000E+00  0.00000E+00  9.000E+00
#rwgt            1          17  -30749706.296387747                3    13067193           0
<weights>
-.11145E+08
-.11928E+08
-.10215E+08
-.14497E+08
-.81845E+07
-.91702E+07
-.13910E+08
-.11127E+08
-.11162E+08
-.11171E+08
-.11162E+08
-.11057E+08
-.11251E+08
-.11165E+08
-.11163E+08
-.11333E+08
-.10860E+08
-.11326E+08
-.10848E+08
-.10812E+08
-.11345E+08
-.11104E+08
-.11154E+08
-.11134E+08
-.11107E+08
-.11197E+08
-.11105E+08
-.10927E+08
-.11342E+08
-.11090E+08
-.11157E+08
-.11035E+08
-.11250E+08
-.11328E+08
-.10909E+08
-.11127E+08
-.11159E+08
-.11167E+08
-.11124E+08
-.11195E+08
-.11098E+08
-.11153E+08
-.11137E+08
-.11122E+08
-.11167E+08
</weights>
</event>
<event>
      6  10001  1.11453E+07  8.94427E-01 -1.00000E+00  5.97774E-01
       2    -1     0     0   501     0  0.000000000E+00  0.000000000E+00  1.696409144E-01  1.696409144E-01  0.000000000E+00  0.00000E+00  9.000E+00
      21    -1     0     0   502   501  0.000000000E+00  0.000000000E+00 -9.702646201E+00  9.702646201E+00  0.000000000E+00  0.00000E+00  9.000E+00
      23     2     1     2     0     0  5.085129874E-01  1.650103118E-01 -6.705567994E+00  6.994750755E+00  1.917311175E+00  0.00000E+00  9.000E+00
      11     1     3     3     0     0 -4.026664282E-01 -2.943742431E-01 -5.014808750E-01  7.073045854E-01  5.110000000E-04  0.00000E+00  9.000E+00
     -11     1     3     3     0     0  9.111794155E-01  4.593845549E-01 -6.204087119E+00  6.287446170E+00  5.110000000E-04  0.00000E+00  9.000E+00
       2     1     1     2   502     0 -5.085129874E-01 -1.650103118E-01 -2.827437293E+00  2.877536361E+00  0.000000000E+00  0.00000E+00  9.000E+00
#rwgt            1          24   552714.24221178039                3    13068126           0
<weights>
0.11145E+08
0.14827E+08
0.76654E+07
0.10474E+08
0.10818E+08
0.14150E+08
0.62654E+07
0.11269E+08
0.11011E+08
0.10401E+08
0.10358E+08
0.10743E+08
0.10805E+08
0.10404E+08
0.10374E+08
0.11316E+08
0.11391E+08
0.11931E+08
0.11988E+08
0.11987E+08
0.11867E+08
0.12006E+08
0.12083E+08
0.11589E+08
0.11716E+08
0.11678E+08
0.11003E+08
0.11918E+08
0.11633E+08
0.11968E+08
0.12034E+08
0.11267E+08
0.11286E+08
0.11110E+08
0.11238E+08
0.11351E+08
0.10974E+08
0.11174E+08
0.10819E+08
0.11254E+08
0.11052E+08
0.11222E+08
0.11066E+08
0.12005E+08
0.10364E+08
</weights>
</event>
<event>
      7  10001  1.11453E+07  8.94427E-01 -1.00000E+00  6.07649E-01
      -3    -1     0     0     0   502  0.000000000E+00  0.000000000E+00  1.980680678E+01  1.980680678E+01  0.000000000E+00  0.00000E+00  9.000E+00
       1    -1     0     0   502     0  0.000000000E+00  0.000000000E+00 -8.096385399E-01  8.096385399E-01  0.000000000E+00  0.00000E+00  9.000E+00
      23     2     1     2     0     0 -5.221785286E-02 -2.676673891E-02  1.896898061E+01  1.911126031E+01  2.326929741E+00  0.00000E+00  9.000E+00
      11     1     3     3     0     0  3.108592659E-01 -1.039626092E+00  5.969071046E+00  6.066899151E+00  5.110000000E-04  0.00000E+00  9.000E+00
     -11     1     3     3     0     0 -3.630771188E-01  1.012859353E+00  1.299990957E+01  1.304436116E+01  5.110000000E-04  0.00000E+00  9.000E+00
      -3     1     1     2     0   501  2.684399702E-01  2.967404469E-01  6.675309487E-01  7.782753227E-01  0.000000000E+00  0.00000E+00  9.000E+00
       1     1     1     2   501     0 -2.162221173E-01 -2.699737080E-01 -6.393433223E-01  7.269096855E-01  0.000000000E+00  0.00000E+00  9.000E+00
#rwgt            2          75   408574.35961876513                3    13153071           0
<weights>
0.11145E+08
0.11282E+08
0.10815E+08
0.13712E+08
0.86657E+07
0.91702E+07
0.13910E+08
0.11076E+08
0.11223E+08
0.10847E+08
0.10826E+08
0.10962E+08
0.11018E+08
0.10861E+08
0.10840E+08
0.11234E+08
0.11197E+08
0.11499E+08
0.11403E+08
0.11385E+08
0.11484E+08
0.11481E+08
0.11499E+08
0.11358E+08
0.11330E+08
0.11356E+08
0.11121E+08
0.11412E+08
0.11353E+08
0.11460E+08
0.11492E+08
0.11166E+08
0.11228E+08
0.11187E+08
0.11125E+08
0.11109E+08
0.11207E+08
0.11130E+08
0.11087E+08
0.11155E+08
0.11136E+08
0.11201E+08
0.11086E+08
0.11484E+08
0.10834E+08
</weights>
</event>
<event>
      7  10001  1.11453E+07  1.44229E+00 -1.00000E+00  4.38784E-01
       2    -1     0     0   501     0  0.000000000E+00  0.000000000E+00  2.379638748E-01  2.379638748E-01  0.000000000E+00  0.00000E+00  9.000E+00
      21    -1     0     0   502   511  0.000000000E+00  0.000000000E+00 -3.435947503E+02  3.435947503E+02  0.000000000E+00  0.00000E+00  9.000E+00
      23     2     1     2     0     0 -3.011532753E-01 -1.774059920E-01 -3.741829425E+00  3.986739718E+00  1.330653958E+00  0.00000E+00  9.000E+00
      11     1     3     3     0     0  4.110971545E-01  3.080506482E-01 -1.371082150E+00  1.464159348E+00  5.110000000E-04  0.00000E+00  9.000E+00
     -11     1     3     3     0     0 -7.122504298E-01 -4.854566403E-01 -2.370747275E+00  2.522580371E+00  5.110000000E-04  0.00000E+00  9.000E+00
       2     1     1     2   502     0  6.169473997E-02 -1.244862498E+00 -3.293933813E+00  3.521858720E+00  0.000000000E+00  0.00000E+00  9.000E+00
      21     1     1     2   501   511  2.394585354E-01  1.422268490E+00 -3.363210232E+02  3.363241157E+02  3.814697266E-06  0.00000E+00  9.000E+00
#rwgt            1          24   514989.72070764820                3    13154196           0
<weights>
0.11145E+08
0.14251E+08
0.82472E+07
0.10792E+08
0.10534E+08
0.13420E+08
0.73853E+07
0.11229E+08
0.11053E+08
0.10552E+08
0.10497E+08
0.10830E+08
0.10860E+08
0.10551E+08
0.10513E+08
0.11280E+08
0.11351E+08
0.11797E+08
0.11821E+08
0.11821E+08
0.11743E+08
0.11863E+08
0.11893E+08
0.11549E+08
0.11564E+08
0.11545E+08
0.11080E+08
0.11787E+08
0.11565E+08
0.11842E+08
0.11881E+08
0.11256E+08
0.11252E+08
0.11115E+08
0.11226E+08
0.11286E+08
0.11033E+08
0.11259E+08
0.10827E+08
0.11249E+08
0.11057E+08
0.11209E+08
0.11079E+08
0.11847E+08
0.10509E+08
</weights>
</event>
<event>
      6  10001 -1.11453E+07  8.94427E-01 -1.00000E+00  2.02392E-01
      21    -1     0     0   502   501  0.000000000E+00  0.000000000E+00  1.914644642E-03  1.914644642E-03  0.000000000E+00  0.00000E+00  9.000E+00
       2    -1     0     0   501     0  0.000000000E+00  0.000000000E+00 -2.648120136E+02  2.648120136E+02  0.000000000E+00  0.00000E+00  9.000E+00
      23     2     1     2     0     0 -2.696609763E-01 -2.038698222E-03 -2.381266134E+02  2.381290800E+02  1.049781011E+00  0.00000E+00  9.000E+00
      11     1     3     3     0     0 -5.892848876E-01  2.224383017E-01 -1.829516789E+02  1.829527631E+02  5.110000000E-04  0.00000E+00  9.000E+00
     -11     1     3     3     0     0  3.196239113E-01 -2.244769999E-01 -5.517493452E+01  5.517631692E+01  5.110000000E-04  0.00000E+00  9.000E+00
       2     1     1     2   502     0  2.696609763E-01  2.038698222E-03 -2.668348558E+01  2.668484821E+01  0.000000000E+00  0.00000E+00  9.000E+00
#rwgt            1          17  -5045212.5705470182                3    13193242           0
<weights>
-.11145E+08
-.12052E+08
-.10096E+08
-.14647E+08
-.80893E+07
-.91702E+07
-.13910E+08
-.11127E+08
-.11162E+08
-.11171E+08
-.11164E+08
-.11066E+08
-.11242E+08
-.11166E+08
-.11165E+08
-.11330E+08
-.10863E+08
-.11307E+08
-.10870E+08
-.10837E+08
-.11324E+08
-.11103E+08
-.11151E+08
-.11144E+08
-.11096E+08
-.11182E+08
-.11113E+08
-.10948E+08
-.11313E+08
-.11092E+08
-.11153E+08
-.11040E+08
-.11244E+08
-.11307E+08
-.10934E+08
-.11130E+08
-.11157E+08
-.11169E+08
-.11122E+08
-.11188E+08
-.11104E+08
-.11155E+08
-.11134E+08
-.11121E+08
-.11168E+08
</weights>
</event>
<event>
      7  10001  1.11453E+07  2.88618E+00 -1.00000E+00  2.97192E-01
      -2    -1     0     0     0   502  0.000000000E+00  0.000000000E+00  3.956976146E-01  3.956976146E-01  0.000000000E+00  0.00000E+00  9.000E+00
      21    -1     0     0   511   501  0.000000000E+00  0.000000000E+00 -2.230301209E+02  2.230301209E+02  0.000000000E+00  0.00000E+00  9.000E+00
      23     2     1     2     0     0 -5.240804596E-01  1.939154140E+00 -7.629054027E+00  8.013093608E+00  1.404359184E+00  0.00000E+00  9.000E+00
      11     1     3     3     0     0  3.161224934E-01  8.814938578E-01 -1.793736431E+00  2.023476093E+00  5.110000000E-04  0.00000E+00  9.000E+00
     -11     1     3     3     0     0 -8.402029529E-01  1.057660282E+00 -5.835317596E+00  5.989617516E+00  5.110000000E-04  0.00000E+00  9.000E+00
      -2     1     1     2     0   501 -8.541491778E-01  5.966964076E-01 -1.205502524E+00  1.593378096E+00  0.000000000E+00  0.00000E+00  9.000E+00
      21     1     1     2   511   502  1.378229637E+00 -2.535850548E+00 -2.137998667E+02  2.138193468E+02  0.000000000E+00  0.00000E+00  9.000E+00
#rwgt            1           7   136454.01841954101                3    13194073           0
<weights>
0.11145E+08
0.14071E+08
0.83692E+07
0.10983E+08
0.10408E+08
0.13165E+08
0.77769E+07
0.11241E+08
0.11041E+08
0.10516E+08
0.10473E+08
0.10802E+08
0.10855E+08
0.10518E+08
0.10488E+08
0.11288E+08
0.11344E+08
0.11816E+08
0.11856E+08
0.11854E+08
0.11761E+08
0.11882E+08
0.11935E+08
0.11555E+08
0.11596E+08
0.11559E+08
0.11079E+08
0.11797E+08
0.11572E+08
0.11853E+08
0.11906E+08
0.11240E+08
0.11275E+08
0.11113E+08
0.11227E+08
0.11306E+08
0.11016E+08
0.11207E+08
0.10870E+08
0.11240E+08
0.11064E+08
0.11214E+08
0.11074E+08
0.11877E+08
0.10481E+08
</weights>
</event>
<event>
      7  10001  1.11453E+07  1.75759E+00 -1.00000E+00  3.79747E-01
       3    -1     0     0   501     0  0.000000000E+00  0.000000000E+00  2.196540116E+01  2.196540116E+01  0.000000000E+00  0.00000E+00  9.000E+00
      21    -1     0     0   511   502  0.000000000E+00  0.000000000E+00 -6.502552360E-01  6.502552360E-01  0.000000000E+00  0.00000E+00  9.000E+00
      23     2     1     2     0     0 -2.133793761E-01 -2.255752620E+00  1.931871799E+01  1.949017556E+01  1.232934787E+00  0.00000E+00  9.000E+00
      11     1     3     3     0     0  4.425337172E-01 -1.374377015E+00  1.256391970E+01  1.264661325E+01  5.110000000E-04  0.00000E+00  9.000E+00
     -11     1     3     3     0     0 -6.559130933E-01 -8.813756052E-01  6.754798291E+00  6.843562315E+00  5.110000000E-04  0.00000E+00  9.000E+00
      21     1     1     2   501   502 -1.347605373E-01  5.329827634E-01  1.364276228E-01  5.664305119E-01  4.945664870E-08  0.00000E+00  9.000E+00
       3     1     1     2   511     0  3.481399134E-01  1.722769857E+00  1.860000316E+00  2.559050323E+00  0.000000000E+00  0.00000E+00  9.000E+00
#rwgt            1          25   68412.527953344252                3    13203968           0
<weights>
0.11145E+08
0.12095E+08
0.10093E+08
0.12951E+08
0.91297E+07
0.10303E+08
0.12170E+08
0.11181E+08
0.11107E+08
0.10805E+08
0.10794E+08
0.10979E+08
0.10967E+08
0.10821E+08
0.10804E+08
0.11212E+08
0.11218E+08
0.11376E+08
0.11803E+08
0.11723E+08
0.11366E+08
0.11518E+08
0.11560E+08
0.11947E+08
0.11150E+08
0.11035E+08
0.13374E+08
0.11370E+08
0.11536E+08
0.11499E+08
0.11551E+08
0.11207E+08
0.11202E+08
0.11140E+08
0.11178E+08
0.11218E+08
0.11091E+08
0.11167E+08
0.11048E+08
0.11178E+08
0.11117E+08
0.11194E+08
0.11094E+08
0.11529E+08
0.10794E+08
</weights>
</event>
<event>
      6  10001 -1.11453E+07  8.94427E-01 -1.00000E+00  1.71202E-01
       2    -1     0     0   501     0  0.000000000E+00  0.000000000E+00  1.181986883E+02  1.181986883E+02  0.000000000E+00  0.00000E+00  9.000E+00
      21    -1     0     0   502   501  0.000000000E+00  0.000000000E+00 -6.386073593E-03  6.386073593E-03  0.000000000E+00  0.00000E+00  9.000E+00
      23     2     1     2     0     0  2.630943553E-01  5.403122905E-02  1.062503430E+02  1.062600951E+02  1.414319578E+00  0.00000E+00  9.000E+00
      11     1     3     3     0     0  7.983822154E-01 -5.417419058E-02  4.337799213E+01  4.338537254E+01  5.110000000E-04  0.00000E+00  9.000E+00
     -11     1     3     3     0     0 -5.352878601E-01  1.082054196E-01  6.287235084E+01  6.287472260E+01  5.110000000E-04  0.00000E+00  9.000E+00
       2     1     1     2   502     0 -2.630943553E-01 -5.403122905E-02  1.194195926E+01  1.194497923E+01  0.000000000E+00  0.00000E+00  9.000E+00
#rwgt            1          24  -4594637.1493626758                3    13206896           0
<weights>
-.11145E+08
-.12331E+08
-.97842E+07
-.14996E+08
-.78399E+07
-.91644E+07
-.13909E+08
-.11174E+08
-.11117E+08
-.10827E+08
-.10819E+08
-.10963E+08
-.11009E+08
-.10845E+08
-.10829E+08
-.11225E+08
-.11208E+08
-.11457E+08
-.11496E+08
-.11485E+08
-.11434E+08
-.11495E+08
-.11515E+08
-.11402E+08
-.11329E+08
-.11286E+08
-.11334E+08
-.11429E+08
-.11367E+08
-.11472E+08
-.11507E+08
-.11182E+08
-.11217E+08
-.11138E+08
-.11177E+08
-.11211E+08
-.11099E+08
-.11125E+08
-.11091E+08
-.11165E+08
-.11129E+08
-.11184E+08
-.11105E+08
-.11500E+08
-.10819E+08
</weights>
</event>
<event>
      7  10001  1.11453E+07  1.13519E+00 -1.00000E+00  5.15838E-01
      -5    -1     0     0     0   502  0.000000000E+00  0.000000000E+00  1.172787019E-01  1.172787019E-01  0.000000000E+00  0.00000E+00  9.000E+00
      21    -1     0     0   502   501  0.000000000E+00  0.000000000E+00 -8.908728003E+01  8.908728003E+01  0.000000000E+00  0.00000E+00  9.000E+00
      23     2     1     2     0     0 -4.662380522E-02 -2.991155353E-01 -3.409356321E+00  3.633765948E+00  1.220205131E+00  0.00000E+00  9.000E+00
      11     1     3     3     0     0  2.643420225E-01 -4.790587210E-01 -6.434855315E-01  8.446584241E-01  5.110000000E-04  0.00000E+00  9.000E+00
     -11     1     3     3     0     0 -3.109658277E-01  1.799431857E-01 -2.765870790E+00  2.789107524E+00  5.110000000E-04  0.00000E+00  9.000E+00
      -5     1     1     2     0   511  5.961517833E-01  4.510050040E-01 -4.792322664E+01  4.792905647E+01  0.000000000E+00  0.00000E+00  9.000E+00
      21     1     1     2   511   501 -5.495279781E-01 -1.518894687E-01 -3.763741836E+01  3.764173631E+01  0.000000000E+00  0.00000E+00  9.000E+00
#rwgt            1           1   852628.75702887517                3    13209043           0
<weights>
0.11145E+08
0.12675E+08
0.90845E+07
0.13704E+08
0.83662E+07
0.10320E+08
0.12146E+08
0.11264E+08
0.11028E+08
0.10899E+08
0.11041E+08
0.10956E+08
0.11163E+08
0.11023E+08
0.11039E+08
0.11205E+08
0.11048E+08
0.11237E+08
0.11192E+08
0.11182E+08
0.11237E+08
0.11226E+08
0.11228E+08
0.11112E+08
0.11304E+08
0.11247E+08
0.11068E+08
0.11190E+08
0.11129E+08
0.11141E+08
0.11230E+08
0.11056E+08
0.11265E+08
0.11184E+08
0.11101E+08
0.11338E+08
0.10971E+08
0.10642E+08
0.11717E+08
0.11043E+08
0.11238E+08
0.11128E+08
0.11164E+08
0.11294E+08
0.10982E+08
</weights>
</event>
<event>
      6  10001 -1.11453E+07  8.94427E-01 -1.00000E+00  6.07509E-01
      21    -1     0     0   502   501  0.000000000E+00  0.000000000E+00  3.493596478E-02  3.493596478E-02  0.000000000E+00  0.00000E+00  9.000E+00
      -3    -1     0     0     0   502  0.000000000E+00  0.000000000E+00 -9.211918776E+01  9.211918776E+01  0.000000000E+00  0.00000E+00  9.000E+00
      23     2     1     2     0     0 -1.004216923E-01  2.626339731E-01 -8.955695988E+01  8.961123845E+01  3.105790016E+00  0.00000E+00  9.000E+00
      11     1     3     3     0     0  1.478662410E+00 -9.373472552E-02 -4.763126473E+01  4.765430315E+01  5.110000000E-04  0.00000E+00  9.000E+00
     -11     1     3     3     0     0 -1.579084102E+00  3.563686986E-01 -4.192569515E+01  4.195693529E+01  5.110000000E-04  0.00000E+00  9.000E+00
      -3     1     1     2     0   501  1.004216923E-01 -2.626339731E-01 -2.527291912E+00  2.542885276E+00  0.000000000E+00  0.00000E+00  9.000E+00
#rwgt            1          13  -123486.62151709443                3    13211132           0
<weights>
-.11145E+08
-.76540E+07
-.14538E+08
-.12849E+08
-.93921E+07
-.68003E+07
-.17548E+08
-.11081E+08
-.11207E+08
-.11297E+08
-.11311E+08
-.11280E+08
-.11147E+08
-.11331E+08
-.11300E+08
-.11867E+08
-.10177E+08
-.11332E+08
-.10496E+08
-.10429E+08
-.11380E+08
-.10964E+08
-.10921E+08
-.10411E+08
-.11772E+08
-.11610E+08
-.10487E+08
-.10582E+08
-.11506E+08
-.10945E+08
-.10988E+08
-.11194E+08
-.11038E+08
-.11157E+08
-.11133E+08
-.11132E+08
-.11151E+08
-.11178E+08
-.11153E+08
-.11055E+08
-.11224E+08
-.11154E+08
-.11135E+08
-.10961E+08
-.11308E+08
</weights>
</event>
<event>
      6  10001 -1.11453E+07  8.94427E-01 -1.00000E+00  5.19907E-01
       2    -1     0     0   501     0  0.000000000E+00  0.000000000E+00  1.144982362E+02  1.144982362E+02  0.000000000E+00  0.00000E+00  9.000E+00
      21    -1     0     0   502   501  0.000000000E+00  0.000000000E+00 -2.499132936E-02  2.499132936E-02  0.000000000E+00  0.00000E+00  9.000E+00
      23     2     1     2     0     0 -4.328216351E-01 -2.737731209E-01  7.102211041E+01  7.106907500E+01  2.531988884E+00  0.00000E+00  9.000E+00
      11     1     3     3     0     0 -9.017884721E-01 -1.145488910E+00  5.277815991E+01  5.279829099E+01  5.110000000E-04  0.00000E+00  9.000E+00
     -11     1     3     3     0     0  4.689668370E-01  8.717157894E-01  1.824395050E+01  1.827078401E+01  5.110000000E-04  0.00000E+00  9.000E+00
       2     1     1     2   502     0  4.328216351E-01  2.737731209E-01  4.345113443E+01  4.345415250E+01  0.000000000E+00  0.00000E+00  9.000E+00
#rwgt            1          24  -63938017.020530358                3    13229773           0
<weights>
-.11145E+08
-.12363E+08
-.97085E+07
-.15047E+08
-.77797E+07
-.91572E+07
-.13908E+08
-.11164E+08
-.11129E+08
-.10813E+08
-.10797E+08
-.10958E+08
-.10997E+08
-.10828E+08
-.10808E+08
-.11227E+08
-.11220E+08
-.11477E+08
-.11526E+08
-.11512E+08
-.11452E+08
-.11520E+08
-.11537E+08
-.11441E+08
-.11328E+08
-.11289E+08
-.11406E+08
-.11451E+08
-.11387E+08
-.11500E+08
-.11533E+08
-.11189E+08
-.11218E+08
-.11136E+08
-.11181E+08
-.11202E+08
-.11109E+08
-.11153E+08
-.11063E+08
-.11171E+08
-.11123E+08
-.11188E+08
-.11100E+08
-.11522E+08
-.10800E+08
</weights>
</event>
<event>
      7  10001  1.11453E+07  6.47467E+00 -1.00000E+00  2.19484E-01
      21    -1     0     0   502   501  0.000000000E+00  0.000000000E+00  1.086350023E+01  1.086350023E+01  0.000000000E+00  0.00000E+00  9.000E+00
       2    -1     0     0   501     0  0.000000000E+00  0.000000000E+00 -1.240713664E+00  1.240713664E+00  0.000000000E+00  0.00000E+00  9.000E+00
      23     2     1     2     0     0  1.293484597E-01  2.961497008E-01 -8.714817698E-01  1.392160072E+00  1.036433076E+00  0.00000E+00  9.000E+00
      11     1     3     3     0     0  7.103940727E-02  3.330464962E-01 -1.101016511E+00  1.152477411E+00  5.110000000E-04  0.00000E+00  9.000E+00
     -11     1     3     3     0     0  5.830905239E-02 -3.689679540E-02  2.295347409E-01  2.396826600E-01  5.110000000E-04  0.00000E+00  9.000E+00
       2     1     1     2   511     0  3.054851828E-01 -1.458229681E-03  1.259438683E-01  3.304318104E-01  0.000000000E+00  0.00000E+00  9.000E+00
      21     1     1     2   502   511 -4.348336425E-01 -2.946914711E-01  1.036832447E+01  1.038162202E+01  2.384185791E-07  0.00000E+00  9.000E+00
#rwgt            2         189   1866550.9541104266                3    13233307           0
<weights>
0.11145E+08
0.11126E+08
0.10951E+08
0.13522E+08
0.87744E+07
0.91702E+07
0.13910E+08
0.11093E+08
0.11203E+08
0.10849E+08
0.10834E+08
0.10987E+08
0.10996E+08
0.10865E+08
0.10846E+08
0.11181E+08
0.11265E+08
0.11443E+08
0.11461E+08
0.11452E+08
0.11422E+08
0.11479E+08
0.11486E+08
0.11359E+08
0.11321E+08
0.11334E+08
0.11115E+08
0.11456E+08
0.11286E+08
0.11461E+08
0.11477E+08
0.11163E+08
0.11230E+08
0.11133E+08
0.11186E+08
0.11105E+08
0.11210E+08
0.11118E+08
0.11097E+08
0.11156E+08
0.11135E+08
0.11202E+08
0.11086E+08
0.11478E+08
0.10839E+08
</weights>
</event>
<event>
      6  10001 -1.11453E+07  8.94427E-01 -1.00000E+00  4.28602E-01
      -2    -1     0     0     0   502  0.000000000E+00  0.000000000E+00  2.229576703E-02  2.229576703E-02  0.000000000E+00  0.00000E+00  9.000E+00
      21    -1     0     0   502   501  0.000000000E+00  0.000000000E+00 -1.988755469E+02  1.988755469E+02  0.000000000E+00  0.00000E+00  9.000E+00
      23     2     1     2     0     0 -4.925159757E-01 -6.602002075E-01 -1.862535417E+02  1.862712393E+02  2.431940798E+00  0.00000E+00  9.000E+00
      11     1     3     3     0     0  7.019826173E-01 -5.455286692E-01 -1.377040211E+02  1.377068909E+02  5.110000000E-04  0.00000E+00  9.000E+00
     -11     1     3     3     0     0 -1.194498593E+00 -1.146715383E-01 -4.854952059E+01  4.856434830E+01  5.110000000E-04  0.00000E+00  9.000E+00
      -2     1     1     2     0   501  4.925159757E-01  6.602002075E-01 -1.259970945E+01  1.262660344E+01  0.000000000E+00  0.00000E+00  9.000E+00
#rwgt            1           7  -172954.84369124516                3    13235135           0
<weights>
-.11145E+08
-.11998E+08
-.10050E+08
-.14582E+08
-.80526E+07
-.91702E+07
-.13910E+08
-.11052E+08
-.11235E+08
-.11448E+08
-.11352E+08
-.11166E+08
-.11409E+08
-.11422E+08
-.11396E+08
-.11085E+08
-.11080E+08
-.10905E+08
-.10838E+08
-.10840E+08
-.10926E+08
-.10888E+08
-.10803E+08
-.11106E+08
-.10825E+08
-.10945E+08
-.11217E+08
-.10957E+08
-.10968E+08
-.10924E+08
-.10868E+08
-.11162E+08
-.11044E+08
-.11106E+08
-.11176E+08
-.11086E+08
-.11191E+08
-.11281E+08
-.11046E+08
-.11026E+08
-.11258E+08
-.11063E+08
-.11233E+08
-.10860E+08
-.11405E+08
</weights>
</event>
<event>
      7  10001  1.11453E+07  1.24983E+00 -1.00000E+00  4.83262E-01
      21    -1     0     0   502   511  0.000000000E+00  0.000000000E+00  5.688498961E+02  5.688498961E+02  0.000000000E+00  0.00000E+00  9.000E+00
       3    -1     0     0   501     0  0.000000000E+00  0.000000000E+00 -1.522893643E-01  1.522893643E-01  0.000000000E+00  0.00000E+00  9.000E+00
      23     2     1     2     0     0 -3.027497307E-01  3.133870268E-01  3.870184062E+00  4.074718469E+00  1.197972077E+00  0.00000E+00  9.000E+00
      11     1     3     3     0     0 -1.135381653E-01 -3.257084433E-01  2.747677411E+00  2.769243276E+00  5.110000000E-04  0.00000E+00  9.000E+00
     -11     1     3     3     0     0 -1.892115654E-01  6.390954701E-01  1.122506651E+00  1.305475193E+00  5.110000000E-04  0.00000E+00  9.000E+00
       3     1     1     2   502     0 -9.332200486E-01 -4.989741325E-01  5.626812779E+00  5.725460409E+00  0.000000000E+00  0.00000E+00  9.000E+00
      21     1     1     2   501   511  1.235969779E+00  1.855871057E-01  5.592006099E+02  5.592020066E+02  1.078959322E-05  0.00000E+00  9.000E+00
#rwgt            1          18   73129.755429054843                3    13236836           0
<weights>
0.11145E+08
0.18398E+08
0.49926E+07
0.87945E+07
0.11767E+08
0.17811E+08
0.64551E+06
0.11104E+08
0.11184E+08
0.10597E+08
0.10506E+08
0.11045E+08
0.10637E+08
0.10570E+08
0.10528E+08
0.11060E+08
0.11502E+08
0.10972E+08
0.14193E+08
0.13531E+08
0.11046E+08
0.11817E+08
0.11974E+08
0.16332E+08
0.10040E+08
0.96593E+07
0.31045E+08
0.11170E+08
0.12679E+08
0.11841E+08
0.11968E+08
0.11391E+08
0.11130E+08
0.11146E+08
0.11210E+08
0.11154E+08
0.11166E+08
0.11606E+08
0.10607E+08
0.11296E+08
0.11009E+08
0.11286E+08
0.10996E+08
0.11835E+08
0.10528E+08
</weights>
</event>
<event>
      6  10001  1.11453E+07  8.94427E-01 -1.00000E+00  5.99274E-01
       2    -1     0     0   501     0  0.000000000E+00  0.000000000E+00  5.097138669E-01  5.097138669E-01  0.000000000E+00  0.00000E+00  9.000E+00
      -2    -1     0     0     0   502  0.000000000E+00  0.000000000E+00 -5.068432798E+00  5.068432798E+00  0.000000000E+00  0.00000E+00  9.000E+00
      23     2     1     2     0     0  1.905063670E-01 -4.235166953E-01 -2.463065062E+00  3.431655526E+00  2.343909360E+00  0.00000E+00  9.000E+00
      11     1     3     3     0     0  4.591275813E-01  8.884023356E-01 -1.407113119E+00  1.726274728E+00  5.110000000E-04  0.00000E+00  9.000E+00
     -11     1     3     3     0     0 -2.686212143E-01 -1.311919031E+00 -1.055951942E+00  1.705380798E+00  5.110000000E-04  0.00000E+00  9.000E+00
      21     1     1     2   501   502 -1.905063670E-01  4.235166953E-01 -2.095653869E+00  2.146491138E+00  0.000000000E+00  0.00000E+00  9.000E+00
#rwgt            1          23   329138.29027923057                3    13241060           0
<weights>
0.11145E+08
0.14194E+08
0.86162E+07
0.87790E+07
0.11950E+08
0.14646E+08
0.55047E+07
0.10916E+08
0.11368E+08
0.10726E+08
0.10631E+08
0.10967E+08
0.10817E+08
0.10707E+08
0.10653E+08
0.11086E+08
0.11536E+08
0.11690E+08
0.11602E+08
0.11569E+08
0.11670E+08
0.11708E+08
0.11697E+08
0.11596E+08
0.11324E+08
0.11597E+08
0.10968E+08
0.11720E+08
0.11306E+08
0.11717E+08
0.11687E+08
0.11131E+08
0.11328E+08
0.11184E+08
0.11157E+08
0.10669E+08
0.11663E+08
0.11286E+08
0.10844E+08
0.11217E+08
0.11071E+08
0.11320E+08
0.10959E+08
0.11669E+08
0.10674E+08
</weights>
</event>
<event>
      7  10001  1.11453E+07  7.04781E+00 -1.00000E+00  2.14290E-01
      21    -1     0     0   502   501  0.000000000E+00  0.000000000E+00  4.279603045E-02  4.279603045E-02  0.000000000E+00  0.00000E+00  9.000E+00
      -2    -1     0     0     0   502  0.000000000E+00  0.000000000E+00 -3.895057711E+02  3.895057711E+02  0.000000000E+00  0.00000E+00  9.000E+00
      23     2     1     2     0     0 -4.083231128E-01 -1.057398207E-01 -6.543734014E+01  6.544730430E+01  1.061247814E+00  0.00000E+00  9.000E+00
      11     1     3     3     0     0 -3.477844848E-01 -5.404189393E-01 -4.858615553E+01  4.859040559E+01  5.110000000E-04  0.00000E+00  9.000E+00
     -11     1     3     3     0     0 -6.053862797E-02  4.346791185E-01 -1.685118461E+01  1.685689871E+01  5.110000000E-04  0.00000E+00  9.000E+00
      -2     1     1     2     0   511 -7.044187214E-01  3.315303533E+00 -2.016808793E+02  2.017093565E+02  0.000000000E+00  0.00000E+00  9.000E+00
      21     1     1     2   511   501  1.112741834E+00 -3.209563712E+00 -1.223447556E+02  1.223919063E+02  2.336015456E-06  0.00000E+00  9.000E+00
#rwgt            2         160   258460.81786807612                3    13244687           0
<weights>
0.11145E+08
0.10643E+08
0.11538E+08
0.12935E+08
0.92448E+07
0.91702E+07
0.13910E+08
0.10912E+08
0.11370E+08
0.11446E+08
0.11352E+08
0.11152E+08
0.11305E+08
0.11338E+08
0.11366E+08
0.11029E+08
0.11211E+08
0.11008E+08
0.10906E+08
0.10891E+08
0.11025E+08
0.10912E+08
0.10982E+08
0.11078E+08
0.10984E+08
0.10934E+08
0.11216E+08
0.10940E+08
0.10981E+08
0.10979E+08
0.10961E+08
0.11368E+08
0.10853E+08
0.11323E+08
0.10975E+08
0.11374E+08
0.10925E+08
0.11609E+08
0.10671E+08
0.11159E+08
0.11115E+08
0.11329E+08
0.10947E+08
0.10889E+08
0.11401E+08
</weights>
</event>
<event>
      7  10001  1.11453E+07  9.23946E-01 -1.00000E+00  5.94129E-01
      21    -1     0     0   502   501  0.000000000E+00  0.000000000E+00  1.264513067E+01  1.264513067E+01  0.000000000E+00  0.00000E+00  9.000E+00
      -2    -1     0     0     0   512  0.000000000E+00  0.000000000E+00 -3.859341859E+01  3.859341859E+01  0.000000000E+00  0.00000E+00  9.000E+00
      23     2     1     2     0     0 -2.718558365E-01 -1.130741250E+00  3.566840708E+00  3.923488716E+00  1.148446644E+00  0.00000E+00  9.000E+00
      11     1     3     3     0     0 -2.550474864E-01 -2.847853742E-01  1.622010063E-01  4.152846702E-01  5.110000000E-04  0.00000E+00  9.000E+00
     -11     1     3     3     0     0 -1.680835011E-02 -8.459558760E-01  3.404639702E+00  3.508204046E+00  5.110000000E-04  0.00000E+00  9.000E+00
      -2     1     1     2     0   501 -1.931279154E-02  2.538740263E-01  8.892588029E+00  8.896232172E+00  0.000000000E+00  0.00000E+00  9.000E+00
      21     1     1     2   502   512  2.911686280E-01  8.768672239E-01 -3.840771665E+01  3.841882837E+01  4.768371582E-07  0.00000E+00  9.000E+00
#rwgt            1          14   847949.47584804357                3    13244995           0
<weights>
0.11145E+08
0.13577E+08
0.88275E+07
0.12284E+08
0.96121E+07
0.11917E+08
0.96926E+07
0.10811E+08
0.11571E+08
0.10790E+08
0.10724E+08
0.10974E+08
0.10918E+08
0.10789E+08
0.10742E+08
0.11167E+08
0.11353E+08
0.11561E+08
0.11555E+08
0.11530E+08
0.11540E+08
0.11607E+08
0.11585E+08
0.11571E+08
0.11258E+08
0.11377E+08
0.11288E+08
0.11564E+08
0.11369E+08
0.11605E+08
0.11595E+08
0.11164E+08
0.11268E+08
0.11137E+08
0.11194E+08
0.10927E+08
0.11417E+08
0.11256E+08
0.10968E+08
0.11187E+08
0.11105E+08
0.11238E+08
0.11047E+08
0.11580E+08
0.10751E+08
</weights>
</event>
<event>
      7  10001  1.11453E+07  1.00162E+01 -1.00000E+00  1.95184E-01
      21    -1     0     0   502   501  0.000000000E+00  0.000000000E+00  5.187766221E+02  5.187766221E+02  0.000000000E+00  0.00000E+00  9.000E+00
      -4    -1     0     0     0   502  0.000000000E+00  0.000000000E+00 -2.465894164E-01  2.465894164E-01  0.000000000E+00  0.00000E+00  9.000E+00
      23     2     1     2     0     0 -1.808386286E+00  1.359873065E-02  4.487279936E+02  4.487335855E+02  1.322172772E+00  0.00000E+00  9.000E+00
      11     1     3     3     0     0 -1.143881517E+00  4.116120918E-01  3.645850139E+02  3.645870407E+02  5.110000000E-04  0.00000E+00  9.000E+00
     -11     1     3     3     0     0 -6.645047697E-01 -3.980133612E-01  8.414297969E+01  8.414654486E+01  5.110000000E-04  0.00000E+00  9.000E+00
      -4     1     1     2     0   511 -1.697287951E-01 -3.804030432E+00  4.028102235E+01  4.046060080E+01  0.000000000E+00  0.00000E+00  9.000E+00
      21     1     1     2   511   501  1.978115082E+00  3.790431701E+00  2.952101675E+01  2.982902516E+01  1.581489940E-06  0.00000E+00  9.000E+00
#rwgt            1          12   9582.4211575934369                3    13264161           0
<weights>
0.11145E+08
0.10897E+08
0.11312E+08
0.12039E+08
0.10096E+08
0.10095E+08
0.12490E+08
0.11184E+08
0.11103E+08
0.10795E+08
0.10775E+08
0.10946E+08
0.10991E+08
0.10809E+08
0.10787E+08
0.11235E+08
0.11226E+08
0.11507E+08
0.11529E+08
0.11522E+08
0.11478E+08
0.11547E+08
0.11561E+08
0.11413E+08
0.11357E+08
0.11321E+08
0.11243E+08
0.11482E+08
0.11394E+08
0.11528E+08
0.11559E+08
0.11197E+08
0.11217E+08
0.11132E+08
0.11187E+08
0.11220E+08
0.11090E+08
0.11172E+08
0.11041E+08
0.11178E+08
0.11118E+08
0.11187E+08
0.11102E+08
0.11545E+08
0.10779E+08
</weights>
</event>
<event>
      6  10001  1.11453E+07  8.94427E-01 -1.00000E+00  5.77780E-01
       4    -1     0     0   501     0  0.000000000E+00  0.000000000E+00  3.639988020E-02  3.639988020E-02  0.000000000E+00  0.00000E+00  9.000E+00
      21    -1     0     0   502   501  0.000000000E+00  0.000000000E+00 -3.011126614E+01  3.011126614E+01  0.000000000E+00  0.00000E+00  9.000E+00
      23     2     1     2     0     0 -3.721156657E-01  1.835185441E-01 -2.836893911E+01  2.839200758E+01  1.066414067E+00  0.00000E+00  9.000E+00
      11     1     3     3     0     0 -7.377612055E-01  8.269019855E-03 -1.773178768E+01  1.774713089E+01  5.110000000E-04  0.00000E+00  9.000E+00
     -11     1     3     3     0     0  3.656455398E-01  1.752495242E-01 -1.063715143E+01  1.064487669E+01  5.110000000E-04  0.00000E+00  9.000E+00
       4     1     1     2   502     0  3.721156657E-01 -1.835185441E-01 -1.705927146E+00  1.755658438E+00  0.000000000E+00  0.00000E+00  9.000E+00
#rwgt            1          28   163130.68471745044                3    13282994           0
<weights>
0.11145E+08
0.13146E+08
0.90544E+07
0.12609E+08
0.93196E+07
0.11387E+08
0.10507E+08
0.11306E+08
0.10984E+08
0.10615E+08
0.10722E+08
0.10850E+08
0.10969E+08
0.10682E+08
0.10713E+08
0.11249E+08
0.11219E+08
0.11553E+08
0.11640E+08
0.11634E+08
0.11523E+08
0.11580E+08
0.11707E+08
0.11280E+08
0.11602E+08
0.11495E+08
0.10992E+08
0.11521E+08
0.11348E+08
0.11498E+08
0.11610E+08
0.11118E+08
0.11313E+08
0.11167E+08
0.11141E+08
0.11382E+08
0.10938E+08
0.10726E+08
0.11420E+08
0.11141E+08
0.11150E+08
0.11179E+08
0.11111E+08
0.11650E+08
0.10671E+08
</weights>
</event>
<event>
      6  10001  1.11453E+07  8.94427E-01 -1.00000E+00  6.02174E-01
      21    -1     0     0   502   501  0.000000000E+00  0.000000000E+00  3.797292921E+01  3.797292921E+01  0.000000000E+00  0.00000E+00  9.000E+00
       4    -1     0     0   501     0  0.000000000E+00  0.000000000E+00 -3.035746305E-02  3.035746305E-02  0.000000000E+00  0.00000E+00  9.000E+00
      23     2     1     2     0     0 -3.328332590E-01  8.819094415E-02  1.061726261E+01  1.067580829E+01  1.062102437E+00  0.00000E+00  9.000E+00
      11     1     3     3     0     0 -4.550706308E-01  3.468419336E-01  9.654505839E+00  9.671446214E+00  5.110000000E-04  0.00000E+00  9.000E+00
     -11     1     3     3     0     0  1.222373718E-01 -2.586509894E-01  9.627567733E-01  1.004362074E+00  5.110000000E-04  0.00000E+00  9.000E+00
       4     1     1     2   502     0  3.328332590E-01 -8.819094415E-02  2.732530914E+01  2.732747839E+01  0.000000000E+00  0.00000E+00  9.000E+00
#rwgt            1          19   620663.32123528817                3    13315100           0
<weights>
0.11145E+08
0.13215E+08
0.90950E+07
0.12711E+08
0.93163E+07
0.11360E+08
0.10549E+08
0.11138E+08
0.11158E+08
0.10752E+08
0.10702E+08
0.10934E+08
0.10945E+08
0.10754E+08
0.10718E+08
0.11236E+08
0.11271E+08
0.11568E+08
0.11637E+08
0.11618E+08
0.11537E+08
0.11633E+08
0.11635E+08
0.11572E+08
0.11335E+08
0.11316E+08
0.11568E+08
0.11550E+08
0.11469E+08
0.11623E+08
0.11645E+08
0.11221E+08
0.11220E+08
0.11128E+08
0.11201E+08
0.11179E+08
0.11137E+08
0.11275E+08
0.10941E+08
0.11202E+08
0.11097E+08
0.11203E+08
0.11084E+08
0.11617E+08
0.10717E+08
</weights>
</event>
<event>
      6  10001 -1.11453E+07  8.94427E-01 -1.00000E+00  4.30702E-01
      21    -1     0     0   502   501  0.000000000E+00  0.000000000E+00  5.170940291E-03  5.170940291E-03  0.000000000E+00  0.00000E+00  9.000E+00
      -2    -1     0     0     0   502  0.000000000E+00  0.000000000E+00 -6.120745731E+02  6.120745731E+02  0.000000000E+00  0.00000E+00  9.000E+00
      23     2     1     2     0     0 -2.043081652E-01 -1.113719459E+00 -5.042820322E+02  5.042864269E+02  1.774871838E+00  0.00000E+00  9.000E+00
      11     1     3     3     0     0 -7.619161937E-01 -2.317065504E-01 -3.479884392E+02  3.479893505E+02  5.110000000E-04  0.00000E+00  9.000E+00
     -11     1     3     3     0     0  5.576080285E-01 -8.820129089E-01 -1.562935930E+02  1.562970764E+02  5.110000000E-04  0.00000E+00  9.000E+00
      -2     1     1     2     0   501  2.043081652E-01  1.113719459E+00 -1.077873700E+02  1.077933172E+02  0.000000000E+00  0.00000E+00  9.000E+00
#rwgt            1          14  -1372016.7898521633                3    13319953           0
<weights>
-.11145E+08
-.11547E+08
-.10582E+08
-.14034E+08
-.84791E+07
-.91702E+07
-.13910E+08
-.10817E+08
-.11466E+08
-.11480E+08
-.11369E+08
-.11145E+08
-.11325E+08
-.11318E+08
-.11376E+08
-.11039E+08
-.11218E+08
-.11003E+08
-.10945E+08
-.10934E+08
-.11017E+08
-.10899E+08
-.11031E+08
-.11042E+08
-.11046E+08
-.10915E+08
-.11229E+08
-.10920E+08
-.11006E+08
-.10980E+08
-.10973E+08
-.11456E+08
-.10767E+08
-.11346E+08
-.10956E+08
-.11589E+08
-.10749E+08
-.11753E+08
-.10557E+08
-.11194E+08
-.11081E+08
-.11355E+08
-.10920E+08
-.10880E+08
-.11422E+08
</weights>
</event>
<event>
      7  10001  1.11453E+07  8.94427E-01 -1.00000E+00  6.07649E-01
       1    -1     0     0   501     0  0.000000000E+00  0.000000000E+00  3.316258416E+00  3.316258416E+00  0.000000000E+00  0.00000E+00  9.000E+00
       5    -1     0     0   502     0  0.000000000E+00  0.000000000E+00 -3.861515932E-01  3.861515932E-01  0.000000000E+00  0.00000E+00  9.000E+00
      23     2     1     2     0     0 -2.816212379E-01 -1.015100180E-01  4.314662362E-01  1.136651219E+00  1.008066503E+00  0.00000E+00  9.000E+00
      11     1     3     3     0     0 -4.521471448E-02 -3.432710121E-01  6.482989695E-01  7.349633822E-01  5.110000000E-04  0.00000E+00  9.000E+00
     -11     1     3     3     0     0 -2.364065234E-01  2.417609941E-01 -2.168327333E-01  4.016878364E-01  5.110000000E-04  0.00000E+00  9.000E+00
       1     1     1     2   502     0  2.570978606E-01 -4.821459068E-02  2.304829005E+00  2.319625121E+00  0.000000000E+00  0.00000E+00  9.000E+00
       5     1     1     2   501     0  2.452337728E-02  1.497246086E-01  1.938115812E-01  2.461336699E-01  0.000000000E+00  0.00000E+00  9.000E+00
#rwgt            2         230   6824.2335405663289                3    13325976           0
<weights>
0.11145E+08
0.12526E+08
0.94107E+07
0.15224E+08
0.75403E+07
0.91702E+07
0.13910E+08
0.11194E+08
0.11094E+08
0.10827E+08
0.10823E+08
0.10959E+08
0.11017E+08
0.10847E+08
0.10832E+08
0.11229E+08
0.11202E+08
0.11459E+08
0.11477E+08
0.11471E+08
0.11435E+08
0.11490E+08
0.11512E+08
0.11356E+08
0.11349E+08
0.11304E+08
0.11191E+08
0.11431E+08
0.11354E+08
0.11466E+08
0.11503E+08
0.11181E+08
0.11216E+08
0.11137E+08
0.11177E+08
0.11229E+08
0.11079E+08
0.11111E+08
0.11102E+08
0.11163E+08
0.11131E+08
0.11180E+08
0.11109E+08
0.11497E+08
0.10821E+08
</weights>
</event>
<event>
      6  10001 -1.11453E+07  8.94427E-01 -1.00000E+00  4.66516E-01
      -2    -1     0     0     0   502  0.000000000E+00  0.000000000E+00  2.150026037E+02  2.150026037E+02  0.000000000E+00  0.00000E+00  9.000E+00
      21    -1     0     0   502   501  0.000000000E+00  0.000000000E+00 -1.077700960E-02  1.077700960E-02  0.000000000E+00  0.00000E+00  9.000E+00
      23     2     1     2     0     0  1.337508822E-01 -5.938870217E-01  1.911505772E+02  1.911643605E+02  2.213355628E+00  0.00000E+00  9.000E+00
      11     1     3     3     0     0  1.139819367E+00 -3.872785861E-01  8.026672967E+01  8.027575640E+01  5.110000000E-04  0.00000E+00  9.000E+00
     -11     1     3     3     0     0 -1.006068485E+00 -2.066084356E-01  1.108838476E+02  1.108886041E+02  5.110000000E-04  0.00000E+00  9.000E+00
      -2     1     1     2     0   501 -1.337508822E-01  5.938870217E-01  2.384124942E+01  2.384902021E+01  0.000000000E+00  0.00000E+00  9.000E+00
#rwgt            1           7  -2558299.1747609042                3    13327063           0
<weights>
-.11144E+08
-.12066E+08
-.10002E+08
-.14672E+08
-.80147E+07
-.91650E+07
-.13908E+08
-.11172E+08
-.11117E+08
-.10825E+08
-.10816E+08
-.10962E+08
-.11007E+08
-.10843E+08
-.10827E+08
-.11224E+08
-.11207E+08
-.11457E+08
-.11497E+08
-.11485E+08
-.11434E+08
-.11495E+08
-.11515E+08
-.11404E+08
-.11327E+08
-.11285E+08
-.11342E+08
-.11429E+08
-.11367E+08
-.11472E+08
-.11507E+08
-.11181E+08
-.11216E+08
-.11137E+08
-.11176E+08
-.11208E+08
-.11099E+08
-.11126E+08
-.11088E+08
-.11164E+08
-.11128E+08
-.11183E+08
-.11103E+08
-.11500E+08
-.10816E+08
</weights>
</event>
<event>
      6  10001  1.11453E+07  8.94427E-01 -1.00000E+00  5.83808E-01
      21    -1     0     0   502   501  0.000000000E+00  0.000000000E+00  5.153160228E+01  5.153160228E+01  0.000000000E+00  0.00000E+00  9.000E+00
       2    -1     0     0   501     0  0.000000000E+00  0.000000000E+00 -8.522519645E-02  8.522519645E-02  0.000000000E+00  0.00000E+00  9.000E+00
      23     2     1     2     0     0 -2.711108815E-01  2.995263474E-01  1.192476428E+01  1.209314982E+01  1.970038634E+00  0.00000E+00  9.000E+00
      11     1     3     3     0     0  8.219083502E-01 -1.372578075E-01  5.099063637E+00  5.166703328E+00  5.110000000E-04  0.00000E+00  9.000E+00
     -11     1     3     3     0     0 -1.093019232E+00  4.367841549E-01  6.825700647E+00  6.926446493E+00  5.110000000E-04  0.00000E+00  9.000E+00
       2     1     1     2   502     0  2.711108815E-01 -2.995263474E-01  3.952161280E+01  3.952367766E+01  0.000000000E+00  0.00000E+00  9.000E+00
#rwgt            1          17   1230801.2153955321                3    13327600           0
<weights>
0.11151E+08
0.12452E+08
0.97620E+07
0.12891E+08
0.92973E+07
0.10696E+08
0.11581E+08
0.10934E+08
0.11444E+08
0.10805E+08
0.10758E+08
0.10975E+08
0.10953E+08
0.10810E+08
0.10773E+08
0.11194E+08
0.11309E+08
0.11530E+08
0.11554E+08
0.11533E+08
0.11508E+08
0.11579E+08
0.11571E+08
0.11531E+08
0.11287E+08
0.11341E+08
0.11356E+08
0.11527E+08
0.11381E+08
0.11570E+08
0.11575E+08
0.11180E+08
0.11253E+08
0.11138E+08
0.11199E+08
0.11037E+08
0.11306E+08
0.11222E+08
0.11010E+08
0.11186E+08
0.11118E+08
0.11223E+08
0.11074E+08
0.11562E+08
0.10776E+08
</weights>
</event>
<event>
      7  10001  1.11453E+07  5.40322E+00 -1.00000E+00  2.31419E-01
      21    -1     0     0   502   501  0.000000000E+00  0.000000000E+00  4.270162067E-02  4.270162067E-02  0.000000000E+00  0.00000E+00  9.000E+00
      -2    -1     0     0     0   502  0.000000000E+00  0.000000000E+00 -4.779037155E+02  4.779037155E+02  0.000000000E+00  0.00000E+00  9.000E+00
      23     2     1     2     0     0 -4.852664047E-01  4.674487525E-01 -4.515581883E+02  4.515602305E+02  1.179115763E+00  0.00000E+00  9.000E+00
      11     1     3     3     0     0 -6.860203233E-01  5.835299387E-01 -4.269403878E+02  4.269413378E+02  5.110000000E-04  0.00000E+00  9.000E+00
     -11     1     3     3     0     0  2.007539186E-01 -1.160811862E-01 -2.461780050E+01  2.461889272E+01  5.110000000E-04  0.00000E+00  9.000E+00
      -2     1     1     2     0   511 -1.517351273E-01 -5.219042987E-01 -2.369164398E+01  2.369787759E+01  0.000000000E+00  0.00000E+00  9.000E+00
      21     1     1     2   511   501  6.370015320E-01  5.445554625E-02 -2.611181521E+00  2.688309003E+00  7.140128941E-07  0.00000E+00  9.000E+00
#rwgt            2         160   5810341.6122877747                3    13345288           0
<weights>
0.11145E+08
0.10556E+08
0.11644E+08
0.12830E+08
0.93296E+07
0.91702E+07
0.13910E+08
0.10866E+08
0.11416E+08
0.11469E+08
0.11363E+08
0.11151E+08
0.11318E+08
0.11333E+08
0.11375E+08
0.11032E+08
0.11216E+08
0.11002E+08
0.10922E+08
0.10909E+08
0.11018E+08
0.10902E+08
0.11001E+08
0.11062E+08
0.11007E+08
0.10922E+08
0.11224E+08
0.10929E+08
0.10991E+08
0.10978E+08
0.10962E+08
0.11410E+08
0.10810E+08
0.11332E+08
0.10968E+08
0.11466E+08
0.10849E+08
0.11685E+08
0.10606E+08
0.11174E+08
0.11100E+08
0.11340E+08
0.10936E+08
0.10880E+08
0.11415E+08
</weights>
</event>
<event>
      6  10001 -1.11453E+07  8.94427E-01 -1.00000E+00  4.95363E-01
      -2    -1     0     0     0   502  0.000000000E+00  0.000000000E+00  2.447873358E-02  2.447873358E-02  0.000000000E+00  0.00000E+00  9.000E+00
       2    -1     0     0   501     0  0.000000000E+00  0.000000000E+00 -4.666135759E+01  4.666135759E+01  0.000000000E+00  0.00000E+00  9.000E+00
      23     2     1     2     0     0  1.802844790E-01  5.841050800E-01 -3.745515796E+01  3.748378873E+01  1.331119356E+00  0.00000E+00  9.000E+00
      11     1     3     3     0     0  4.676409766E-01  7.360099275E-01 -1.442254611E+01  1.444888353E+01  5.110000000E-04  0.00000E+00  9.000E+00
     -11     1     3     3     0     0 -2.873564977E-01 -1.519048474E-01 -2.303261185E+01  2.303490520E+01  5.110000000E-04  0.00000E+00  9.000E+00
      21     1     1     2   501   502 -1.802844790E-01 -5.841050800E-01 -9.181720900E+00  9.202047594E+00  1.192092896E-07  0.00000E+00  9.000E+00
#rwgt            1           8  -5252042.3591233268                3    13345425           0
<weights>
-.11145E+08
-.12756E+08
-.94673E+07
-.15503E+08
-.75857E+07
-.91702E+07
-.13910E+08
-.11189E+08
-.11102E+08
-.11067E+08
-.11108E+08
-.11147E+08
-.11055E+08
-.11099E+08
-.11107E+08
-.11099E+08
-.11202E+08
-.11080E+08
-.11311E+08
-.11323E+08
-.11071E+08
-.11183E+08
-.11179E+08
-.11237E+08
-.11111E+08
-.11122E+08
-.11153E+08
-.11320E+08
-.10932E+08
-.11181E+08
-.11160E+08
-.11144E+08
-.11156E+08
-.11067E+08
-.11255E+08
-.11119E+08
-.11170E+08
-.11024E+08
-.11270E+08
-.11078E+08
-.11199E+08
-.11208E+08
-.11078E+08
-.11195E+08
-.11093E+08
</weights>
</event>
<event>
      7  10001  1.11453E+07  1.21331E+00 -1.00000E+00  4.93050E-01
       1    -1     0     0   501     0  0.000000000E+00  0.000000000E+00  6.197415831E+00  6.197415831E+00  0.000000000E+00  0.00000E+00  9.000E+00
      21    -1     0     0   502   511  0.000000000E+00  0.000000000E+00 -4.838073853E+01  4.838073853E+01  0.000000000E+00  0.00000E+00  9.000E+00
      23     2     1     2     0     0  1.875860939E-01  3.093929423E-01  5.735005253E+00  5.898219782E+00  1.329585958E+00  0.00000E+00  9.000E+00
      11     1     3     3     0     0 -2.368448154E-01  5.934043316E-01  1.471326116E+00  1.604065139E+00  5.110000000E-04  0.00000E+00  9.000E+00
     -11     1     3     3     0     0  4.244309093E-01 -2.840113892E-01  4.263679136E+00  4.294154644E+00  5.110000000E-04  0.00000E+00  9.000E+00
       1     1     1     2   502     0  5.136609204E-01  6.807501557E-01 -1.142012535E-01  8.604128323E-01  0.000000000E+00  0.00000E+00  9.000E+00
      21     1     1     2   501   511 -7.012470143E-01 -9.901430980E-01 -4.780412670E+01  4.781952174E+01  6.743495762E-07  0.00000E+00  9.000E+00
#rwgt            1          22   513195.17434089520                3    13345822           0
<weights>
0.11145E+08
0.14150E+08
0.81033E+07
0.12404E+08
0.93966E+07
0.12306E+08
0.90967E+07
0.11172E+08
0.11116E+08
0.10679E+08
0.10622E+08
0.10899E+08
0.10907E+08
0.10676E+08
0.10638E+08
0.11254E+08
0.11300E+08
0.11655E+08
0.11710E+08
0.11699E+08
0.11616E+08
0.11724E+08
0.11736E+08
0.11571E+08
0.11410E+08
0.11382E+08
0.11363E+08
0.11638E+08
0.11517E+08
0.11713E+08
0.11739E+08
0.11238E+08
0.11230E+08
0.11124E+08
0.11210E+08
0.11208E+08
0.11108E+08
0.11298E+08
0.10886E+08
0.11223E+08
0.11078E+08
0.11209E+08
0.11078E+08
0.11705E+08
0.10638E+08
</weights>
</event>
<event>
      7  10001  1.11453E+07  9.69696E+00 -1.00000E+00  1.96797E-01
      21    -1     0     0   502   501  0.000000000E+00  0.000000000E+00  3.636000412E+00  3.636000412E+00  0.000000000E+00  0.00000E+00  9.000E+00
       2    -1     0     0   501     0  0.000000000E+00  0.000000000E+00 -6.947157627E+00  6.947157627E+00  0.000000000E+00  0.00000E+00  9.000E+00
      23     2     1     2     0     0 -8.842896657E-01 -2.939431074E-01 -3.368451257E+00  3.647952978E+00  1.045335496E+00  0.00000E+00  9.000E+00
      11     1     3     3     0     0 -3.482341384E-01 -6.634677633E-01 -1.796104261E+00  1.946136498E+00  5.110000000E-04  0.00000E+00  9.000E+00
     -11     1     3     3     0     0 -5.360555273E-01  3.695246558E-01 -1.572346995E+00  1.701816481E+00  5.110000000E-04  0.00000E+00  9.000E+00
       2     1     1     2   511     0 -8.865596511E-01  6.746126995E-01 -3.100632504E+00  3.294694559E+00  0.000000000E+00  0.00000E+00  9.000E+00
      21     1     1     2   502   511  1.770849317E+00 -3.806695920E-01  3.157926546E+00  3.640510502E+00  9.573923590E-07  0.00000E+00  9.000E+00
#rwgt            2         189   4647511.6880028676                3    13351599           0
<weights>
0.11145E+08
0.11016E+08
0.11071E+08
0.13388E+08
0.88709E+07
0.91702E+07
0.13910E+08
0.11154E+08
0.11132E+08
0.10894E+08
0.10903E+08
0.11029E+08
0.11001E+08
0.10915E+08
0.10910E+08
0.11129E+08
0.11297E+08
0.11338E+08
0.11452E+08
0.11450E+08
0.11321E+08
0.11402E+08
0.11419E+08
0.11294E+08
0.11312E+08
0.11320E+08
0.11068E+08
0.11443E+08
0.11160E+08
0.11384E+08
0.11392E+08
0.11152E+08
0.11216E+08
0.11116E+08
0.11208E+08
0.11093E+08
0.11214E+08
0.11043E+08
0.11165E+08
0.11129E+08
0.11157E+08
0.11208E+08
0.11079E+08
0.11410E+08
0.10900E+08
</weights>
</event>
<event>
      7  10001 -1.11453E+07  1.17869E+00 -1.00000E+00  5.02822E-01
       2    -1     0     0   501     0  0.000000000E+00  0.000000000E+00  3.079051405E+00  3.079051405E+00  0.000000000E+00  0.00000E+00  9.000E+00
      21    -1     0     0   512   501  0.000000000E+00  0.000000000E+00 -2.460572331E+01  2.460572331E+01  0.000000000E+00  0.00000E+00  9.000E+00
      23     2     1     2     0     0  5.247718894E-01 -2.874824191E-01  1.910339819E+00  2.254016400E+00  1.035934375E+00  0.00000E+00  9.000E+00
      11     1     3     3     0     0  1.465006678E-01  3.290859782E-02  1.714420770E+00  1.720983516E+00  5.110000000E-04  0.00000E+00  9.000E+00
     -11     1     3     3     0     0  3.782712216E-01 -3.203910169E-01  1.959190486E-01  5.330328841E-01  5.110000000E-04  0.00000E+00  9.000E+00
       2     1     1     2   502     0  5.081898240E-01 -2.802300039E-01  8.969216302E-01  1.068294979E+00  0.000000000E+00  0.00000E+00  9.000E+00
      21     1     1     2   512   502 -1.032961713E+00  5.677124230E-01 -2.433393336E+01  2.436246334E+01  5.840038640E-07  0.00000E+00  9.000E+00
#rwgt            1          24  -1788770.1097019007                3    13355384           0
<weights>
-.11145E+08
-.11525E+08
-.10103E+08
-.17516E+08
-.61727E+07
-.69803E+07
-.17272E+08
-.11214E+08
-.11075E+08
-.11024E+08
-.11076E+08
-.11056E+08
-.11141E+08
-.11053E+08
-.11075E+08
-.11176E+08
-.11113E+08
-.11207E+08
-.11217E+08
-.11220E+08
-.11201E+08
-.11198E+08
-.11252E+08
-.11105E+08
-.11264E+08
-.11194E+08
-.11008E+08
-.11179E+08
-.11161E+08
-.11164E+08
-.11211E+08
-.11113E+08
-.11197E+08
-.11160E+08
-.11129E+08
-.11233E+08
-.11065E+08
-.10919E+08
-.11329E+08
-.11107E+08
-.11179E+08
-.11142E+08
-.11149E+08
-.11236E+08
-.11055E+08
</weights>
</event>
<event>
      6  10001 -1.11453E+07  8.94427E-01 -1.00000E+00  4.53906E-01
      -2    -1     0     0     0   502  0.000000000E+00  0.000000000E+00  6.101336387E+01  6.101336387E+01  0.000000000E+00  0.00000E+00  9.000E+00
      21    -1     0     0   502   501  0.000000000E+00  0.000000000E+00 -2.367750016E-02  2.367750016E-02  0.000000000E+00  0.00000E+00  9.000E+00
      23     2     1     2     0     0 -8.214490142E-01  2.148016429E-01  3.497622869E+01  3.500973074E+01  1.274266383E+00  0.00000E+00  9.000E+00
      11     1     3     3     0     0 -1.061059425E+00 -1.202073906E-01  2.879580929E+01  2.881560220E+01  5.110000000E-04  0.00000E+00  9.000E+00
     -11     1     3     3     0     0  2.396104110E-01  3.350090335E-01  6.180419397E+00  6.194128541E+00  5.110000000E-04  0.00000E+00  9.000E+00
      -2     1     1     2     0   501  8.214490142E-01 -2.148016429E-01  2.601345768E+01  2.602731063E+01  0.000000000E+00  0.00000E+00  9.000E+00
#rwgt            1           7  -5064709.6013411526                3    13388876           0
<weights>
-.11145E+08
-.12569E+08
-.95795E+07
-.15278E+08
-.76756E+07
-.91695E+07
-.13910E+08
-.11177E+08
-.11114E+08
-.10845E+08
-.10845E+08
-.10971E+08
-.11023E+08
-.10867E+08
-.10854E+08
-.11223E+08
-.11194E+08
-.11432E+08
-.11466E+08
-.11455E+08
-.11410E+08
-.11465E+08
-.11485E+08
-.11375E+08
-.11320E+08
-.11273E+08
-.11317E+08
-.11401E+08
-.11347E+08
-.11440E+08
-.11477E+08
-.11174E+08
-.11216E+08
-.11141E+08
-.11171E+08
-.11213E+08
-.11096E+08
-.11100E+08
-.11126E+08
-.11156E+08
-.11136E+08
-.11181E+08
-.11108E+08
-.11474E+08
-.10842E+08
</weights>
</event>
<event>
      6  10001 -1.11453E+07  8.94427E-01 -1.00000E+00  1.76875E-01
      21    -1     0     0   502   501  0.000000000E+00  0.000000000E+00  2.443615713E-02  2.443615713E-02  0.000000000E+00  0.00000E+00  9.000E+00
      -4    -1     0     0     0   502  0.000000000E+00  0.000000000E+00 -2.383295947E+01  2.383295947E+01  0.000000000E+00  0.00000E+00  9.000E+00
      23     2     1     2     0     0 -2.638552864E-01 -1.140896452E-03 -1.558556353E+01  1.563020361E+01  1.150588282E+00  0.00000E+00  9.000E+00
      11     1     3     3     0     0 -6.230156482E-01 -1.566671538E-01 -1.293040865E+01  1.294635706E+01  5.110000000E-04  0.00000E+00  9.000E+00
     -11     1     3     3     0     0  3.591603619E-01  1.555262574E-01 -2.655154882E+00  2.683846548E+00  5.110000000E-04  0.00000E+00  9.000E+00
      -4     1     1     2     0   501  2.638552864E-01  1.140896452E-03 -8.222959784E+00  8.227192020E+00  0.000000000E+00  0.00000E+00  9.000E+00
#rwgt            1          12  -2820093.0799779119                3    13390738           0
<weights>
-.11145E+08
-.13275E+08
-.89388E+07
-.16134E+08
-.71622E+07
-.91702E+07
-.13910E+08
-.11244E+08
-.11046E+08
-.10854E+08
-.10928E+08
-.10947E+08
-.11099E+08
-.10910E+08
-.10929E+08
-.11200E+08
-.11163E+08
-.11348E+08
-.11377E+08
-.11372E+08
-.11336E+08
-.11356E+08
-.11416E+08
-.11200E+08
-.11386E+08
-.11348E+08
-.11043E+08
-.11335E+08
-.11217E+08
-.11299E+08
-.11370E+08
-.11112E+08
-.11247E+08
-.11162E+08
-.11136E+08
-.11313E+08
-.10996E+08
-.10830E+08
-.11407E+08
-.11105E+08
-.11184E+08
-.11142E+08
-.11150E+08
-.11405E+08
-.10895E+08
</weights>
</event>
<event>
      6  10001 -1.11453E+07  8.94427E-01 -1.00000E+00  6.04950E-01
      21    -1     0     0   502   501  0.000000000E+00  0.000000000E+00  5.173526393E-02  5.173526393E-02  0.000000000E+00  0.00000E+00  9.000E+00
       2    -1     0     0   501     0  0.000000000E+00  0.000000000E+00 -3.915877630E+01  3.915877630E+01  0.000000000E+00  0.00000E+00  9.000E+00
      23     2     1     2     0     0 -1.931045102E-01  2.098968786E-01 -3.839896632E+01  3.844715329E+01  1.903059535E+00  0.00000E+00  9.000E+00
      11     1     3     3     0     0  5.427214091E-01 -1.488651116E-01 -4.102616236E+00  4.141034604E+00  5.110000000E-04  0.00000E+00  9.000E+00
     -11     1     3     3     0     0 -7.358259193E-01  3.587619902E-01 -3.429635009E+01  3.430611869E+01  5.110000000E-04  0.00000E+00  9.000E+00
       2     1     1     2   502     0  1.931045102E-01 -2.098968786E-01 -7.080747194E-01  7.633582774E-01  0.000000000E+00  0.00000E+00  9.000E+00
#rwgt            1          17  -1552393.5324753975                3    13392900           0
<weights>
-.11145E+08
-.87427E+07
-.13258E+08
-.14475E+08
-.83091E+07
-.66656E+07
-.17755E+08
-.11164E+08
-.11127E+08
-.11136E+08
-.11162E+08
-.11110E+08
-.11173E+08
-.11164E+08
-.11166E+08
-.11183E+08
-.11050E+08
-.11118E+08
-.11102E+08
-.11101E+08
-.11120E+08
-.11113E+08
-.11110E+08
-.11172E+08
-.11079E+08
-.11109E+08
-.11147E+08
-.11143E+08
-.11055E+08
-.11103E+08
-.11113E+08
-.11113E+08
-.11167E+08
-.11137E+08
-.11152E+08
-.11179E+08
-.11110E+08
-.11050E+08
-.11264E+08
-.11093E+08
-.11190E+08
-.11158E+08
-.11132E+08
-.11129E+08
-.11154E+08
</weights>
</event>
<event>
      6  10001 -1.11453E+07  8.94427E-01 -1.00000E+00  1.50659E-01
      21    -1     0     0   502   501  0.000000000E+00  0.000000000E+00  1.434951827E-02  1.434951827E-02  0.000000000E+00  0.00000E+00  9.000E+00
       2    -1     0     0   501     0  0.000000000E+00  0.000000000E+00 -6.429442822E+01  6.429442822E+01  0.000000000E+00  0.00000E+00  9.000E+00
      23     2     1     2     0     0 -4.774766819E-01  1.869002482E-01 -4.937954518E+01  4.939942447E+01  1.304124216E+00  0.00000E+00  9.000E+00
      11     1     3     3     0     0  3.963543870E-01 -1.555672651E-01 -2.113910436E+01  2.114339214E+01  5.110000000E-04  0.00000E+00  9.000E+00
     -11     1     3     3     0     0 -8.738310689E-01  3.424675133E-01 -2.824044082E+01  2.825603232E+01  5.110000000E-04  0.00000E+00  9.000E+00
       2     1     1     2   502     0  4.774766819E-01 -1.869002482E-01 -1.490053352E+01  1.490935327E+01  0.000000000E+00  0.00000E+00  9.000E+00
#rwgt            1          17  -13445067.820822543                3    13405925           0
<weights>
-.11145E+08
-.12269E+08
-.99510E+07
-.14912E+08
-.79732E+07
-.91702E+07
-.13910E+08
-.11175E+08
-.11116E+08
-.11107E+08
-.11139E+08
-.11159E+08
-.11079E+08
-.11135E+08
-.11139E+08
-.11125E+08
-.11146E+08
-.11066E+08
-.11249E+08
-.11260E+08
-.11058E+08
-.11149E+08
-.11140E+08
-.11235E+08
-.11062E+08
-.11086E+08
-.11169E+08
-.11277E+08
-.10935E+08
-.11153E+08
-.11130E+08
-.11140E+08
-.11149E+08
-.11070E+08
-.11245E+08
-.11127E+08
-.11161E+08
-.11064E+08
-.11238E+08
-.11082E+08
-.11196E+08
-.11203E+08
-.11084E+08
-.11158E+08
-.11128E+08
</weights>
</event>
<event>
      6  10001 -1.11453E+07  8.94427E-01 -1.00000E+00  4.42636E-01
      21    -1     0     0   502   501  0.000000000E+00  0.000000000E+00  1.044390934E-02  1.044390934E-02  0.000000000E+00  0.00000E+00  9.000E+00
       2    -1     0     0   501     0  0.000000000E+00  0.000000000E+00 -2.633774575E+02  2.633774575E+02  0.000000000E+00  0.00000E+00  9.000E+00
      23     2     1     2     0     0  2.723953814E-01 -7.176664832E-01 -2.200158321E+02  2.200299243E+02  2.368957152E+00  0.00000E+00  9.000E+00
      11     1     3     3     0     0 -1.634940137E-01 -2.769287005E-01 -2.061422365E+02  2.061424873E+02  5.110000000E-04  0.00000E+00  9.000E+00
     -11     1     3     3     0     0  4.358893950E-01 -4.407377828E-01 -1.387359567E+01  1.388743700E+01  5.110000000E-04  0.00000E+00  9.000E+00
       2     1     1     2   502     0 -2.723953814E-01  7.176664832E-01 -4.335118143E+01  4.335797707E+01  0.000000000E+00  0.00000E+00  9.000E+00
#rwgt            1          17  -15608957.157728966                3    13406524           0
<weights>
-.11145E+08
-.12185E+08
-.99361E+07
-.14809E+08
-.79613E+07
-.91702E+07
-.13910E+08
-.11127E+08
-.11162E+08
-.11172E+08
-.11164E+08
-.11068E+08
-.11240E+08
-.11167E+08
-.11165E+08
-.11329E+08
-.10863E+08
-.11304E+08
-.10873E+08
-.10841E+08
-.11321E+08
-.11103E+08
-.11151E+08
-.11146E+08
-.11094E+08
-.11180E+08
-.11115E+08
-.10952E+08
-.11308E+08
-.11093E+08
-.11152E+08
-.11040E+08
-.11243E+08
-.11304E+08
-.10938E+08
-.11130E+08
-.11156E+08
-.11169E+08
-.11122E+08
-.11187E+08
-.11105E+08
-.11156E+08
-.11134E+08
-.11121E+08
-.11169E+08
</weights>
</event>
<event>
      6  10001 -1.11453E+07  8.94427E-01 -1.00000E+00  1.63914E-01
      21    -1     0     0   502   501  0.000000000E+00  0.000000000E+00  1.190533537E-02  1.190533537E-02  0.000000000E+00  0.00000E+00  9.000E+00
       2    -1     0     0   501     0  0.000000000E+00  0.000000000E+00 -8.438374102E+01  8.438374102E+01  0.000000000E+00  0.00000E+00  9.000E+00
      23     2     1     2     0     0 -2.473244021E-01  2.340967827E-01 -7.861026060E+01  7.862401590E+01  1.430676028E+00  0.00000E+00  9.000E+00
      11     1     3     3     0     0  2.725478436E-01 -4.140648679E-01 -1.470313055E+01  1.471148464E+01  5.110000000E-04  0.00000E+00  9.000E+00
     -11     1     3     3     0     0 -5.198722457E-01  6.481616506E-01 -6.390713005E+01  6.391253126E+01  5.110000000E-04  0.00000E+00  9.000E+00
       2     1     1     2   502     0  2.473244021E-01 -2.340967827E-01 -5.761575079E+00  5.771630450E+00  0.000000000E+00  0.00000E+00  9.000E+00
#rwgt            1          17  -10067973.857135180                3    13406755           0
<weights>
-.11145E+08
-.12221E+08
-.99342E+07
-.14853E+08
-.79598E+07
-.91702E+07
-.13910E+08
-.11161E+08
-.11130E+08
-.11137E+08
-.11159E+08
-.11161E+08
-.11104E+08
-.11157E+08
-.11159E+08
-.11161E+08
-.11086E+08
-.11075E+08
-.11188E+08
-.11196E+08
-.11070E+08
-.11127E+08
-.11121E+08
-.11233E+08
-.11032E+08
-.11069E+08
-.11178E+08
-.11232E+08
-.10963E+08
-.11135E+08
-.11115E+08
-.11130E+08
-.11152E+08
-.11084E+08
-.11221E+08
-.11132E+08
-.11153E+08
-.11103E+08
-.11198E+08
-.11093E+08
-.11186E+08
-.11196E+08
-.11090E+08
-.11133E+08
-.11152E+08
</weights>
</event>
<event>
      7  10001  1.11453E+07  2.09873E+00 -1.00000E+00  3.45244E-01
      21    -1     0     0   502   501  0.000000000E+00  0.000000000E+00  1.588258127E+02  1.588258127E+02  0.000000000E+00  0.00000E+00  9.000E+00
      21    -1     0     0   511   502  0.000000000E+00  0.000000000E+00 -2.646190780E-01  2.646190780E-01  0.000000000E+00  0.00000E+00  9.000E+00
      23     2     1     2     0     0 -1.240330555E-01  2.311484434E+00  4.313767582E+01  4.332978921E+01  3.354580970E+00  0.00000E+00  9.000E+00
      11     1     3     3     0     0 -6.539700483E-01  2.323414622E+00  1.548099875E+01  1.566803290E+01  5.110000000E-04  0.00000E+00  9.000E+00
     -11     1     3     3     0     0  5.299369928E-01 -1.193018774E-02  2.765667707E+01  2.766175632E+01  5.110000000E-04  0.00000E+00  9.000E+00
      -3     1     1     2     0   501  1.492197498E+00 -3.902965947E+00  1.069320837E+02  1.070136923E+02  0.000000000E+00  0.00000E+00  9.000E+00
       3     1     1     2   511     0 -1.368164442E+00  1.591481513E+00  8.491434030E+00  8.746950282E+00  0.000000000E+00  0.00000E+00  9.000E+00
#rwgt            1          13   86530.518628756996                3    13407129           0
<weights>
0.11145E+08
0.11854E+08
0.10318E+08
0.12458E+08
0.96867E+07
0.10556E+08
0.11782E+08
0.11171E+08
0.11118E+08
0.10790E+08
0.10770E+08
0.10978E+08
0.10948E+08
0.10801E+08
0.10782E+08
0.11200E+08
0.11250E+08
0.11368E+08
0.11948E+08
0.11829E+08
0.11362E+08
0.11544E+08
0.11590E+08
0.12222E+08
0.11106E+08
0.10996E+08
0.14587E+08
0.11377E+08
0.11591E+08
0.11529E+08
0.11581E+08
0.11217E+08
0.11201E+08
0.11139E+08
0.11182E+08
0.11208E+08
0.11102E+08
0.11201E+08
0.11014E+08
0.11186E+08
0.11110E+08
0.11200E+08
0.11088E+08
0.11553E+08
0.10773E+08
</weights>
</event>
<event>
      7  10001  1.11453E+07  9.44668E+00 -1.00000E+00  1.98118E-01
       1    -1     0     0   501     0  0.000000000E+00  0.000000000E+00  2.311646285E+01  2.311646285E+01  0.000000000E+00  0.00000E+00  9.000E+00
      21    -1     0     0   502   501  0.000000000E+00  0.000000000E+00 -1.267515617E+00  1.267515617E+00  0.000000000E+00  0.00000E+00  9.000E+00
      23     2     1     2     0     0  2.249199957E+00 -6.341721485E-01  1.596573815E+01  1.619464197E+01  1.378607647E+00  0.00000E+00  9.000E+00
      11     1     3     3     0     0  1.786657579E+00  1.594929342E-01  1.074961241E+01  1.089824529E+01  5.110000000E-04  0.00000E+00  9.000E+00
     -11     1     3     3     0     0  4.625423778E-01 -7.936650827E-01  5.216125745E+00  5.296396677E+00  5.110000000E-04  0.00000E+00  9.000E+00
       1     1     1     2   511     0  1.222920021E+00  8.305472801E-01  3.934171774E+00  4.202743117E+00  0.000000000E+00  0.00000E+00  9.000E+00
      21     1     1     2   502   511 -3.472119979E+00 -1.963751316E-01  1.949037303E+00  3.986593376E+00  9.424321831E-08  0.00000E+00  9.000E+00
#rwgt            2         218   140693.57299379769                3    13418560           0
<weights>
0.11145E+08
0.10862E+08
0.11235E+08
0.13201E+08
0.90020E+07
0.91702E+07
0.13910E+08
0.11198E+08
0.11089E+08
0.10854E+08
0.10860E+08
0.10971E+08
0.11036E+08
0.10878E+08
0.10868E+08
0.11224E+08
0.11184E+08
0.11423E+08
0.11435E+08
0.11430E+08
0.11401E+08
0.11447E+08
0.11472E+08
0.11315E+08
0.11338E+08
0.11289E+08
0.11158E+08
0.11391E+08
0.11325E+08
0.11419E+08
0.11459E+08
0.11170E+08
0.11214E+08
0.11139E+08
0.11170E+08
0.11232E+08
0.11074E+08
0.11076E+08
0.11142E+08
0.11152E+08
0.11140E+08
0.11175E+08
0.11115E+08
0.11459E+08
0.10855E+08
</weights>
</event>
<event>
      6  10001 -1.11453E+07  8.94427E-01 -1.00000E+00  5.71907E-01
      21    -1     0     0   502   501  0.000000000E+00  0.000000000E+00  1.192289487E-02  1.192289487E-02  0.000000000E+00  0.00000E+00  9.000E+00
       2    -1     0     0   501     0  0.000000000E+00  0.000000000E+00 -5.955183260E+01  5.955183260E+01  0.000000000E+00  0.00000E+00  9.000E+00
      23     2     1     2     0     0 -5.515659051E-02  4.197684503E-01 -5.207227857E+01  5.208413234E+01  1.027325706E+00  0.00000E+00  9.000E+00
      11     1     3     3     0     0  4.513447595E-01  1.162354501E-02 -2.469684659E+01  2.470097323E+01  5.110000000E-04  0.00000E+00  9.000E+00
     -11     1     3     3     0     0 -5.065013500E-01  4.081449053E-01 -2.737543199E+01  2.738315911E+01  5.110000000E-04  0.00000E+00  9.000E+00
       2     1     1     2   502     0  5.515659051E-02 -4.197684503E-01 -7.467631127E+00  7.479623149E+00  0.000000000E+00  0.00000E+00  9.000E+00
#rwgt            1          17  -8092406.5908224238                3    13420464           0
<weights>
-.11145E+08
-.12494E+08
-.96731E+07
-.15185E+08
-.77506E+07
-.91702E+07
-.13910E+08
-.11178E+08
-.11112E+08
-.11098E+08
-.11133E+08
-.11157E+08
-.11074E+08
-.11128E+08
-.11133E+08
-.11119E+08
-.11158E+08
-.11068E+08
-.11263E+08
-.11274E+08
-.11059E+08
-.11156E+08
-.11148E+08
-.11235E+08
-.11073E+08
-.11093E+08
-.11166E+08
-.11287E+08
-.10933E+08
-.11158E+08
-.11135E+08
-.11141E+08
-.11150E+08
-.11069E+08
-.11247E+08
-.11125E+08
-.11162E+08
-.11054E+08
-.11246E+08
-.11081E+08
-.11197E+08
-.11204E+08
-.11083E+08
-.11165E+08
-.11121E+08
</weights>
</event>
<event>
      6  10001 -1.11453E+07  8.94427E-01 -1.00000E+00  6.02711E-01
      21    -1     0     0   502   501  0.000000000E+00  0.000000000E+00  6.903934661E+01  6.903934661E+01  0.000000000E+00  0.00000E+00  9.000E+00
       2    -1     0     0   501     0  0.000000000E+00  0.000000000E+00 -1.680223584E-02  1.680223584E-02  0.000000000E+00  0.00000E+00  9.000E+00
      23     2     1     2     0     0  3.126745738E-01  2.717796268E-01  6.495704798E+01  6.496959889E+01  1.207919281E+00  0.00000E+00  9.000E+00
      11     1     3     3     0     0  7.734684469E-01  1.866151288E-01  4.513641759E+01  4.514342999E+01  5.110000000E-04  0.00000E+00  9.000E+00
     -11     1     3     3     0     0 -4.607938731E-01  8.516449795E-02  1.982063039E+01  1.982616890E+01  5.110000000E-04  0.00000E+00  9.000E+00
       2     1     1     2   502     0 -3.126745738E-01 -2.717796268E-01  4.065496400E+00  4.086549955E+00  0.000000000E+00  0.00000E+00  9.000E+00
#rwgt            1          17  -167723.74198630740                3    13422759           0
<weights>
-.11145E+08
-.12692E+08
-.93595E+07
-.15440E+08
-.74998E+07
-.91614E+07
-.13909E+08
-.11137E+08
-.11167E+08
-.10817E+08
-.10800E+08
-.10961E+08
-.10996E+08
-.10832E+08
-.10811E+08
-.11222E+08
-.11226E+08
-.11476E+08
-.11515E+08
-.11502E+08
-.11452E+08
-.11517E+08
-.11532E+08
-.11433E+08
-.11323E+08
-.11295E+08
-.11355E+08
-.11452E+08
-.11377E+08
-.11497E+08
-.11527E+08
-.11184E+08
-.11221E+08
-.11136E+08
-.11181E+08
-.11184E+08
-.11129E+08
-.11150E+08
-.11067E+08
-.11170E+08
-.11124E+08
-.11190E+08
-.11098E+08
-.11518E+08
-.10803E+08
</weights>
</event>
<event>
      7  10001  1.11453E+07  9.59246E-01 -1.00000E+00  5.78934E-01
      21    -1     0     0   502   501  0.000000000E+00  0.000000000E+00  1.706775784E+00  1.706775784E+00  0.000000000E+00  0.00000E+00  9.000E+00
       4    -1     0     0   501     0  0.000000000E+00  0.000000000E+00 -6.426926128E-01  6.426926128E-01  0.000000000E+00  0.00000E+00  9.000E+00
      23     2     1     2     0     0  8.795793802E-03 -2.780538122E-01  2.368049516E-01  1.283298854E+00  1.230198388E+00  0.00000E+00  9.000E+00
      11     1     3     3     0     0  2.242881588E-01 -7.952242306E-03 -4.564863262E-01  5.086732188E-01  5.110000000E-04  0.00000E+00  9.000E+00
     -11     1     3     3     0     0 -2.154923650E-01 -2.701015699E-01  6.932912779E-01  7.746256351E-01  5.110000000E-04  0.00000E+00  9.000E+00
       4     1     1     2   511     0 -4.976552809E-02  1.592736726E-01 -5.445575754E-02  1.755281746E-01  0.000000000E+00  0.00000E+00  9.000E+00
      21     1     1     2   502   511  4.096973428E-02  1.187801397E-01  8.817339767E-01  8.906413680E-01  1.825012075E-08  0.00000E+00  9.000E+00
#rwgt            2         195   10594763.626231834                3    13425333           0
<weights>
0.11145E+08
0.12099E+08
0.98919E+07
0.14705E+08
0.79259E+07
0.91702E+07
0.13910E+08
0.11196E+08
0.11091E+08
0.10812E+08
0.10801E+08
0.10950E+08
0.11009E+08
0.10829E+08
0.10812E+08
0.11232E+08
0.11214E+08
0.11484E+08
0.11494E+08
0.11490E+08
0.11457E+08
0.11517E+08
0.11534E+08
0.11365E+08
0.11364E+08
0.11327E+08
0.11162E+08
0.11459E+08
0.11366E+08
0.11494E+08
0.11528E+08
0.11189E+08
0.11216E+08
0.11133E+08
0.11183E+08
0.11235E+08
0.11074E+08
0.11135E+08
0.11075E+08
0.11170E+08
0.11125E+08
0.11180E+08
0.11109E+08
0.11520E+08
0.10801E+08
</weights>
</event>
<event>
      6  10001 -1.11453E+07  8.94427E-01 -1.00000E+00  4.27656E-01
       4    -1     0     0   501     0  0.000000000E+00  0.000000000E+00  2.845061377E+00  2.845061377E+00  0.000000000E+00  0.00000E+00  9.000E+00
      21    -1     0     0   502   501  0.000000000E+00  0.000000000E+00 -5.554689368E-01  5.554689368E-01  0.000000000E+00  0.00000E+00  9.000E+00
      23     2     1     2     0     0  2.123610867E-01 -3.451907461E-01  2.154249332E+00  2.973246287E+00  2.008768134E+00  0.00000E+00  9.000E+00
      11     1     3     3     0     0  3.235358205E-01  8.131375098E-01  1.074728541E+00  1.385968879E+00  5.110000000E-04  0.00000E+00  9.000E+00
     -11     1     3     3     0     0 -1.111747338E-01 -1.158328256E+00  1.079520792E+00  1.587277408E+00  5.110000000E-04  0.00000E+00  9.000E+00
       4     1     1     2   502     0 -2.123610867E-01  3.451907461E-01  1.353431082E-01  4.272840265E-01  0.000000000E+00  0.00000E+00  9.000E+00
#rwgt            1          28  -799560.96133887279                3    13427978           0
<weights>
-.11145E+08
-.97888E+07
-.11716E+08
-.16840E+08
-.66981E+07
-.60852E+07
-.18646E+08
-.11195E+08
-.11095E+08
-.11125E+08
-.11175E+08
-.11097E+08
-.11197E+08
-.11145E+08
-.11175E+08
-.11156E+08
-.11082E+08
-.11105E+08
-.11116E+08
-.11117E+08
-.11108E+08
-.11085E+08
-.11141E+08
-.11046E+08
-.11197E+08
-.11139E+08
-.11023E+08
-.11080E+08
-.11091E+08
-.11056E+08
-.11096E+08
-.11095E+08
-.11179E+08
-.11156E+08
-.11124E+08
-.11214E+08
-.11079E+08
-.10910E+08
-.11350E+08
-.11086E+08
-.11197E+08
-.11130E+08
-.11161E+08
-.11125E+08
-.11157E+08
</weights>
</event>
<event>
      7  10001  1.11453E+07  1.21333E+00 -1.00000E+00  4.93046E-01
      -2    -1     0     0     0   501  0.000000000E+00  0.000000000E+00  8.589169400E+00  8.589169400E+00  0.000000000E+00  0.00000E+00  9.000E+00
      -4    -1     0     0     0   502  0.000000000E+00  0.000000000E+00 -1.894847068E+01  1.894847068E+01  0.000000000E+00  0.00000E+00  9.000E+00
      23     2     1     2     0     0  1.220278050E+00  1.749800100E+00  6.668463348E+00  7.550309663E+00  2.826286197E+00  0.00000E+00  9.000E+00
      11     1     3     3     0     0  1.086323512E+00 -5.405644712E-01  2.818255485E+00  3.068366497E+00  5.110000000E-04  0.00000E+00  9.000E+00
     -11     1     3     3     0     0  1.339545377E-01  2.290364572E+00  3.850207864E+00  4.481943166E+00  5.110000000E-04  0.00000E+00  9.000E+00
      -4     1     1     2     0   501 -5.109397209E-01 -7.654176888E-01 -1.824527180E+01  1.826846646E+01  0.000000000E+00  0.00000E+00  9.000E+00
      -2     1     1     2     0   502 -7.093383289E-01 -9.843824115E-01  1.217507173E+00  1.718863960E+00  0.000000000E+00  0.00000E+00  9.000E+00
#rwgt            2          93   66018.320106250831                3    13473577           0
<weights>
0.11145E+08
0.10742E+08
0.11417E+08
0.13055E+08
0.91482E+07
0.91702E+07
0.13910E+08
0.11241E+08
0.11048E+08
0.10841E+08
0.10903E+08
0.10945E+08
0.11083E+08
0.10889E+08
0.10905E+08
0.11204E+08
0.11176E+08
0.11375E+08
0.11406E+08
0.11401E+08
0.11360E+08
0.11385E+08
0.11447E+08
0.11218E+08
0.11399E+08
0.11363E+08
0.11039E+08
0.11362E+08
0.11239E+08
0.11332E+08
0.11400E+08
0.11123E+08
0.11245E+08
0.11157E+08
0.11143E+08
0.11308E+08
0.11001E+08
0.10866E+08
0.11352E+08
0.11117E+08
0.11173E+08
0.11147E+08
0.11144E+08
0.11430E+08
0.10875E+08
</weights>
</event>
<event>
      6  10001 -1.11453E+07  8.94427E-01 -1.00000E+00  3.63665E-01
       2    -1     0     0   501     0  0.000000000E+00  0.000000000E+00  4.931792865E+02  4.931792865E+02  0.000000000E+00  0.00000E+00  9.000E+00
      21    -1     0     0   502   501  0.000000000E+00  0.000000000E+00 -2.965012314E-03  2.965012314E-03  0.000000000E+00  0.00000E+00  9.000E+00
      23     2     1     2     0     0  1.895356963E-01 -2.792129390E-01  4.809389397E+02  4.809402175E+02  1.056034702E+00  0.00000E+00  9.000E+00
      11     1     3     3     0     0  1.824238250E-01  3.919200647E-01  2.115664108E+02  2.115668525E+02  5.110000000E-04  0.00000E+00  9.000E+00
     -11     1     3     3     0     0  7.111871260E-03 -6.711330036E-01  2.693725289E+02  2.693733651E+02  5.110000000E-04  0.00000E+00  9.000E+00
       2     1     1     2   502     0 -1.895356963E-01  2.792129390E-01  1.223738177E+01  1.224203399E+01  0.000000000E+00  0.00000E+00  9.000E+00
#rwgt            1          24  -67719925.642263323                3    13474227           0
<weights>
-.11145E+08
-.13062E+08
-.88595E+07
-.15894E+08
-.70992E+07
-.91599E+07
-.13909E+08
-.11185E+08
-.11106E+08
-.10858E+08
-.10867E+08
-.10976E+08
-.11034E+08
-.10883E+08
-.10875E+08
-.11221E+08
-.11182E+08
-.11411E+08
-.11441E+08
-.11431E+08
-.11391E+08
-.11439E+08
-.11464E+08
-.11342E+08
-.11321E+08
-.11268E+08
-.11271E+08
-.11379E+08
-.11327E+08
-.11411E+08
-.11451E+08
-.11166E+08
-.11216E+08
-.11143E+08
-.11166E+08
-.11220E+08
-.11088E+08
-.11070E+08
-.11158E+08
-.11149E+08
-.11143E+08
-.11177E+08
-.11112E+08
-.11452E+08
-.10860E+08
</weights>
</event>
<event>
      6  10001 -1.11453E+07  8.94427E-01 -1.00000E+00  2.26861E-01
       2    -1     0     0   501     0  0.000000000E+00  0.000000000E+00  8.937023476E+01  8.937023476E+01  0.000000000E+00  0.00000E+00  9.000E+00
      -2    -1     0     0     0   502  0.000000000E+00  0.000000000E+00 -1.177872350E-02  1.177872350E-02  0.000000000E+00  0.00000E+00  9.000E+00
      23     2     1     2     0     0  4.303758481E-02 -3.223421058E-01  8.036508579E+01  8.038276546E+01  1.654149836E+00  0.00000E+00  9.000E+00
      11     1     3     3     0     0 -1.545639248E-01 -1.548486801E-01  7.844276867E+01  7.844307379E+01  5.110000000E-04  0.00000E+00  9.000E+00
     -11     1     3     3     0     0  1.976015096E-01 -1.674934257E-01  1.922317118E+00  1.939691668E+00  5.110000000E-04  0.00000E+00  9.000E+00
      21     1     1     2   501   502 -4.303758481E-02  3.223421058E-01  8.993370248E+00  8.999248029E+00  2.064765462E-07  0.00000E+00  9.000E+00
#rwgt            1          23  -2796581.9132280522                3    13475482           0
<weights>
-.11145E+08
-.12750E+08
-.93771E+07
-.15505E+08
-.75137E+07
-.91646E+07
-.13909E+08
-.11146E+08
-.11155E+08
-.10817E+08
-.10801E+08
-.10961E+08
-.10997E+08
-.10832E+08
-.10812E+08
-.11223E+08
-.11223E+08
-.11475E+08
-.11515E+08
-.11502E+08
-.11451E+08
-.11516E+08
-.11532E+08
-.11431E+08
-.11325E+08
-.11294E+08
-.11359E+08
-.11450E+08
-.11378E+08
-.11496E+08
-.11527E+08
-.11185E+08
-.11220E+08
-.11137E+08
-.11180E+08
-.11190E+08
-.11122E+08
-.11149E+08
-.11068E+08
-.11170E+08
-.11124E+08
-.11189E+08
-.11099E+08
-.11517E+08
-.10804E+08
</weights>
</event>
<event>
      7  10001  1.11453E+07  8.04883E+00 -1.00000E+00  2.06630E-01
       2    -1     0     0   501     0  0.000000000E+00  0.000000000E+00  1.337640896E-01  1.337640896E-01  0.000000000E+00  0.00000E+00  9.000E+00
      21    -1     0     0   502   501  0.000000000E+00  0.000000000E+00 -1.378234640E+02  1.378234640E+02  0.000000000E+00  0.00000E+00  9.000E+00
      23     2     1     2     0     0 -1.180193479E+00 -9.156329616E-01 -9.043585069E+00  9.247264036E+00  1.222383282E+00  0.00000E+00  9.000E+00
      11     1     3     3     0     0  9.899647542E-02 -3.620713195E-01 -7.646027318E-01  8.517708266E-01  5.110000000E-04  0.00000E+00  9.000E+00
     -11     1     3     3     0     0 -1.279189954E+00 -5.535616422E-01 -8.278982337E+00  8.395493209E+00  5.110000000E-04  0.00000E+00  9.000E+00
       2     1     1     2   511     0 -2.888863475E-01  2.581655785E-01 -1.371491149E+00  1.425164117E+00  0.000000000E+00  0.00000E+00  9.000E+00
      21     1     1     2   502   511  1.469079826E+00  6.574673831E-01 -1.272746237E+02  1.272848000E+02  2.336015456E-06  0.00000E+00  9.000E+00
#rwgt            2         248   744628.90501614450                3    13478521           0
<weights>
0.11145E+08
0.10234E+08
0.12138E+08
0.12438E+08
0.97256E+07
0.91702E+07
0.13910E+08
0.11117E+08
0.11172E+08
0.11287E+08
0.11271E+08
0.11114E+08
0.11329E+08
0.11315E+08
0.11299E+08
0.11126E+08
0.11056E+08
0.10999E+08
0.10920E+08
0.10917E+08
0.11015E+08
0.10979E+08
0.10910E+08
0.11095E+08
0.10965E+08
0.11035E+08
0.11168E+08
0.11012E+08
0.11013E+08
0.10978E+08
0.10965E+08
0.11124E+08
0.11112E+08
0.11132E+08
0.11150E+08
0.11160E+08
0.11126E+08
0.11084E+08
0.11264E+08
0.11036E+08
0.11247E+08
0.11088E+08
0.11207E+08
0.10979E+08
0.11287E+08
</weights>
</event>
<event>
      7  10001  1.11453E+07  1.52436E+00 -1.00000E+00  4.13092E-01
      -2    -1     0     0     0   502  0.000000000E+00  0.000000000E+00  4.721691352E-01  4.721691352E-01  0.000000000E+00  0.00000E+00  9.000E+00
      21    -1     0     0   502   512  0.000000000E+00  0.000000000E+00 -1.505171462E+02  1.505171462E+02  0.000000000E+00  0.00000E+00  9.000E+00
      23     2     1     2     0     0 -2.388784643E-01  6.613615721E-01 -7.007221799E+00  7.537778828E+00  2.687469119E+00  0.00000E+00  9.000E+00
      11     1     3     3     0     0 -5.265510556E-02  1.220509579E+00 -1.240605848E+00  1.741125878E+00  5.110000000E-04  0.00000E+00  9.000E+00
     -11     1     3     3     0     0 -1.862233587E-01 -5.591480068E-01 -5.766615951E+00  5.796652950E+00  5.110000000E-04  0.00000E+00  9.000E+00
      -2     1     1     2     0   501  1.688295945E+00 -1.133439598E+00 -4.897616523E+00  5.302987472E+00  0.000000000E+00  0.00000E+00  9.000E+00
      21     1     1     2   501   512 -1.449417481E+00  4.720780262E-01 -1.381401388E+02  1.381485491E+02  0.000000000E+00  0.00000E+00  9.000E+00
#rwgt            1           7   443718.99505049456                3    13479000           0
<weights>
0.11145E+08
0.12812E+08
0.94744E+07
0.11840E+08
0.10034E+08
0.11696E+08
0.10032E+08
0.11249E+08
0.11037E+08
0.10669E+08
0.10685E+08
0.10881E+08
0.10955E+08
0.10696E+08
0.10691E+08
0.11251E+08
0.11258E+08
0.11602E+08
0.11639E+08
0.11638E+08
0.11564E+08
0.11638E+08
0.11704E+08
0.11371E+08
0.11517E+08
0.11462E+08
0.11036E+08
0.11580E+08
0.11413E+08
0.11595E+08
0.11659E+08
0.11184E+08
0.11258E+08
0.11139E+08
0.11181E+08
0.11307E+08
0.11007E+08
0.11016E+08
0.11104E+08
0.11184E+08
0.11113E+08
0.11185E+08
0.11105E+08
0.11660E+08
0.10672E+08
</weights>
</event>
<event>
      6  10001 -1.11453E+07  8.94427E-01 -1.00000E+00  2.20196E-01
      21    -1     0     0   502   501  0.000000000E+00  0.000000000E+00  2.430434797E-02  2.430434797E-02  0.000000000E+00  0.00000E+00  9.000E+00
       2    -1     0     0   501     0  0.000000000E+00  0.000000000E+00 -5.271468335E+02  5.271468335E+02  0.000000000E+00  0.00000E+00  9.000E+00
      23     2     1     2     0     0 -1.556327975E+00 -1.708407451E+00 -4.602477881E+02  4.602564773E+02  1.630209372E+00  0.00000E+00  9.000E+00
      11     1     3     3     0     0 -2.007042229E-01 -1.227166686E-01 -7.117113251E+00  7.121000130E+00  5.110000000E-04  0.00000E+00  9.000E+00
     -11     1     3     3     0     0 -1.355623752E+00 -1.585690782E+00 -4.531306749E+02  4.531354772E+02  5.110000000E-04  0.00000E+00  9.000E+00
       2     1     1     2   502     0  1.556327975E+00  1.708407451E+00 -6.687474104E+01  6.691466059E+01  0.000000000E+00  0.00000E+00  9.000E+00
#rwgt            1          17  -102871090.43782602                3    13512352           0
<weights>
-.11145E+08
-.12008E+08
-.10073E+08
-.14594E+08
-.80706E+07
-.91702E+07
-.13910E+08
-.11131E+08
-.11159E+08
-.11164E+08
-.11148E+08
-.10970E+08
-.11342E+08
-.11155E+08
-.11151E+08
-.11244E+08
-.10992E+08
-.11499E+08
-.10650E+08
-.10579E+08
-.11542E+08
-.11110E+08
-.11172E+08
-.11021E+08
-.11233E+08
-.11386E+08
-.10996E+08
-.10708E+08
-.11634E+08
-.11063E+08
-.11194E+08
-.11035E+08
-.11253E+08
-.11561E+08
-.10639E+08
-.11089E+08
-.11197E+08
-.11141E+08
-.11156E+08
-.11268E+08
-.11036E+08
-.11130E+08
-.11161E+08
-.11134E+08
-.11157E+08
</weights>
</event>
<event>
      7  10001  1.11453E+07  1.77835E+01 -1.00000E+00  1.70484E-01
      -2    -1     0     0     0   502  0.000000000E+00  0.000000000E+00  1.651824171E+00  1.651824171E+00  0.000000000E+00  0.00000E+00  9.000E+00
      21    -1     0     0   502   501  0.000000000E+00  0.000000000E+00 -4.933475295E+01  4.933475295E+01  0.000000000E+00  0.00000E+00  9.000E+00
      23     2     1     2     0     0 -4.216776630E-01  1.114941737E+00 -1.499554067E-01  2.068516891E+00  1.683855213E+00  0.00000E+00  9.000E+00
      11     1     3     3     0     0 -1.036763970E+00  6.230066912E-01 -3.436792322E-01  1.257430930E+00  5.110000000E-04  0.00000E+00  9.000E+00
     -11     1     3     3     0     0  6.150863074E-01  4.919350459E-01  1.937238255E-01  8.110859614E-01  5.110000000E-04  0.00000E+00  9.000E+00
      -2     1     1     2     0   511 -4.321533212E-01  9.165055653E-01  2.824311716E-01  1.051906037E+00  0.000000000E+00  0.00000E+00  9.000E+00
      21     1     1     2   511   501  8.538309841E-01 -2.031447302E+00 -4.781540454E+01  4.786615419E+01  6.743495762E-07  0.00000E+00  9.000E+00
#rwgt            2         101   8381907.8266075552                3    13514154           0
<weights>
0.11145E+08
0.10186E+08
0.12159E+08
0.12380E+08
0.97426E+07
0.91702E+07
0.13910E+08
0.11210E+08
0.11082E+08
0.11006E+08
0.11072E+08
0.11023E+08
0.11166E+08
0.11062E+08
0.11075E+08
0.11182E+08
0.11097E+08
0.11208E+08
0.11194E+08
0.11188E+08
0.11207E+08
0.11200E+08
0.11220E+08
0.11129E+08
0.11253E+08
0.11223E+08
0.11080E+08
0.11184E+08
0.11139E+08
0.11156E+08
0.11206E+08
0.11102E+08
0.11209E+08
0.11158E+08
0.11131E+08
0.11260E+08
0.11041E+08
0.10877E+08
0.11428E+08
0.11082E+08
0.11204E+08
0.11133E+08
0.11159E+08
0.11240E+08
0.11045E+08
</weights>
</event>
<event>
      6  10001 -1.11453E+07  8.94427E-01 -1.00000E+00  5.29796E-01
       5    -1     0     0   501     0  0.000000000E+00  0.000000000E+00  3.175181279E+01  3.175181279E+01  0.000000000E+00  0.00000E+00  9.000E+00
      -5    -1     0     0     0   502  0.000000000E+00  0.000000000E+00 -2.503963010E-02  2.503963010E-02  0.000000000E+00  0.00000E+00  9.000E+00
      23     2     1     2     0     0  2.944792189E-01 -4.579385395E-01  1.597473049E+01  1.601540344E+01  1.002350918E+00  0.00000E+00  9.000E+00
      11     1     3     3     0     0  6.417826701E-01 -1.713746754E-01  7.777437201E+00  7.805753260E+00  5.110000000E-04  0.00000E+00  9.000E+00
     -11     1     3     3     0     0 -3.473034513E-01 -2.865638642E-01  8.197293293E+00  8.209650183E+00  5.110000000E-04  0.00000E+00  9.000E+00
      21     1     1     2   501   502 -2.944792189E-01  4.579385395E-01  1.575204266E+01  1.576144898E+01  2.920019320E-07  0.00000E+00  9.000E+00
#rwgt            1          29  -175766.07982021716                3    13514310           0
<weights>
-.11145E+08
-.14971E+08
-.74612E+07
-.18207E+08
-.59785E+07
-.91650E+07
-.13909E+08
-.11167E+08
-.11124E+08
-.10809E+08
-.10792E+08
-.10956E+08
-.10995E+08
-.10824E+08
-.10804E+08
-.11228E+08
-.11221E+08
-.11482E+08
-.11528E+08
-.11515E+08
-.11457E+08
-.11526E+08
-.11542E+08
-.11437E+08
-.11332E+08
-.11294E+08
-.11378E+08
-.11456E+08
-.11389E+08
-.11506E+08
-.11538E+08
-.11190E+08
-.11218E+08
-.11136E+08
-.11182E+08
-.11205E+08
-.11106E+08
-.11156E+08
-.11059E+08
-.11173E+08
-.11122E+08
-.11188E+08
-.11100E+08
-.11527E+08
-.10795E+08
</weights>
</event>
<event>
      7  10001  1.11453E+07  8.94427E-01 -1.00000E+00  6.07649E-01
       4    -1     0     0   501     0  0.000000000E+00  0.000000000E+00  2.503383434E-01  2.503383434E-01  0.000000000E+00  0.00000E+00  9.000E+00
       2    -1     0     0   502     0  0.000000000E+00  0.000000000E+00 -6.013923787E+01  6.013923787E+01  0.000000000E+00  0.00000E+00  9.000E+00
      23     2     1     2     0     0  2.745457071E-01  9.056103338E-02 -5.812037504E+01  5.813121006E+01  1.084441013E+00  0.00000E+00  9.000E+00
      11     1     3     3     0     0  6.500858257E-01  2.842473216E-02 -2.436041193E+01  2.436910111E+01  5.110000000E-04  0.00000E+00  9.000E+00
     -11     1     3     3     0     0 -3.755401186E-01  6.213630122E-02 -3.375996311E+01  3.376210895E+01  5.110000000E-04  0.00000E+00  9.000E+00
       4     1     1     2   502     0 -3.288423786E-01 -3.298108109E-02  1.322310719E-01  3.559636471E-01  0.000000000E+00  0.00000E+00  9.000E+00
       2     1     1     2   501     0  5.429667148E-02 -5.757995229E-02 -1.900755560E+00  1.902402502E+00  0.000000000E+00  0.00000E+00  9.000E+00
#rwgt            2         314   90936.908285466779                3    13515273           0
<weights>
0.11148E+08
0.11228E+08
0.10818E+08
0.13693E+08
0.86696E+07
0.91411E+07
0.13910E+08
0.11180E+08
0.11116E+08
0.11103E+08
0.11137E+08
0.11160E+08
0.11078E+08
0.11132E+08
0.11137E+08
0.11123E+08
0.11157E+08
0.11070E+08
0.11261E+08
0.11272E+08
0.11062E+08
0.11156E+08
0.11148E+08
0.11238E+08
0.11072E+08
0.11094E+08
0.11169E+08
0.11286E+08
0.10936E+08
0.11159E+08
0.11136E+08
0.11143E+08
0.11153E+08
0.11071E+08
0.11249E+08
0.11128E+08
0.11164E+08
0.11060E+08
0.11246E+08
0.11084E+08
0.11199E+08
0.11206E+08
0.11085E+08
0.11165E+08
0.11125E+08
</weights>
</event>
<event>
      6  10001 -1.11453E+07  8.94427E-01 -1.00000E+00  4.08715E-01
       4    -1     0     0   501     0  0.000000000E+00  0.000000000E+00  2.872873608E+02  2.872873608E+02  0.000000000E+00  0.00000E+00  9.000E+00
      21    -1     0     0   502   501  0.000000000E+00  0.000000000E+00 -1.019304906E-02  1.019304906E-02  0.000000000E+00  0.00000E+00  9.000E+00
      23     2     1     2     0     0 -4.014265963E-01  1.999028158E-02  2.811440437E+02  2.811512742E+02  1.975887709E+00  0.00000E+00  9.000E+00
      11     1     3     3     0     0 -8.824121377E-01  5.457728908E-01  2.291332339E+02  2.291355830E+02  5.110000000E-04  0.00000E+00  9.000E+00
     -11     1     3     3     0     0  4.809855414E-01 -5.257826092E-01  5.201080987E+01  5.201569127E+01  5.110000000E-04  0.00000E+00  9.000E+00
       4     1     1     2   502     0  4.014265963E-01 -1.999028158E-02  6.133123997E+00  6.146279597E+00  0.000000000E+00  0.00000E+00  9.000E+00
#rwgt            1          28  -1111014.2383393729                3    13516341           0
<weights>
-.11145E+08
-.11822E+08
-.10186E+08
-.14374E+08
-.81614E+07
-.91668E+07
-.13909E+08
-.11175E+08
-.11116E+08
-.10828E+08
-.10820E+08
-.10963E+08
-.11010E+08
-.10847E+08
-.10831E+08
-.11225E+08
-.11207E+08
-.11456E+08
-.11494E+08
-.11483E+08
-.11433E+08
-.11493E+08
-.11513E+08
-.11398E+08
-.11329E+08
-.11286E+08
-.11325E+08
-.11428E+08
-.11365E+08
-.11470E+08
-.11505E+08
-.11181E+08
-.11217E+08
-.11138E+08
-.11176E+08
-.11211E+08
-.11098E+08
-.11123E+08
-.11093E+08
-.11164E+08
-.11130E+08
-.11184E+08
-.11105E+08
-.11498E+08
-.10820E+08
</weights>
</event>
<event>
      6  10001 -1.11453E+07  8.94427E-01 -1.00000E+00  1.70773E-01
      21    -1     0     0   502   501  0.000000000E+00  0.000000000E+00  1.304556789E-02  1.304556789E-02  0.000000000E+00  0.00000E+00  9.000E+00
      -2    -1     0     0     0   502  0.000000000E+00  0.000000000E+00 -5.158414963E+01  5.158414963E+01  0.000000000E+00  0.00000E+00  9.000E+00
      23     2     1     2     0     0  1.975121921E-02 -4.020688343E-01 -4.465317386E+01  4.466756261E+01  1.059794649E+00  0.00000E+00  9.000E+00
      11     1     3     3     0     0 -1.039359922E-01  2.553181608E-01 -4.290677609E+00  4.299523771E+00  5.110000000E-04  0.00000E+00  9.000E+00
     -11     1     3     3     0     0  1.236872114E-01 -6.573869951E-01 -4.036249625E+01  4.036803884E+01  5.110000000E-04  0.00000E+00  9.000E+00
      -2     1     1     2     0   501 -1.975121921E-02  4.020688343E-01 -6.917930201E+00  6.929632583E+00  0.000000000E+00  0.00000E+00  9.000E+00
#rwgt            1          14  -4965682.6306640459                3    13520883           0
<weights>
-.11145E+08
-.12179E+08
-.10003E+08
-.14802E+08
-.80151E+07
-.91702E+07
-.13910E+08
-.11220E+08
-.11071E+08
-.11021E+08
-.11088E+08
-.11048E+08
-.11104E+08
-.11080E+08
-.11088E+08
-.11088E+08
-.11212E+08
-.11225E+08
-.11141E+08
-.11117E+08
-.11236E+08
-.11185E+08
-.11202E+08
-.11178E+08
-.11190E+08
-.11240E+08
-.11074E+08
-.11189E+08
-.11053E+08
-.11150E+08
-.11189E+08
-.11087E+08
-.11218E+08
-.11258E+08
-.11035E+08
-.11055E+08
-.11229E+08
-.10916E+08
-.11392E+08
-.11096E+08
-.11179E+08
-.11246E+08
-.11037E+08
-.11218E+08
-.11066E+08
</weights>
</event>
<event>
      7  10001  1.11453E+07  3.83015E+00 -1.00000E+00  2.64685E-01
      21    -1     0     0   502   501  0.000000000E+00  0.000000000E+00  2.286366084E-01  2.286366084E-01  0.000000000E+00  0.00000E+00  9.000E+00
      -4    -1     0     0     0   502  0.000000000E+00  0.000000000E+00 -5.389898786E+01  5.389898786E+01  0.000000000E+00  0.00000E+00  9.000E+00
      23     2     1     2     0     0  1.609201485E+00  7.645650639E-01 -3.324751182E+01  3.337726982E+01  2.339018923E+00  0.00000E+00  9.000E+00
      11     1     3     3     0     0  7.095757962E-01 -2.078578043E-02 -2.307626626E+00  2.414346861E+00  5.110000000E-04  0.00000E+00  9.000E+00
     -11     1     3     3     0     0  8.996256892E-01  7.853508444E-01 -3.093988519E+01  3.096292296E+01  5.110000000E-04  0.00000E+00  9.000E+00
      -4     1     1     2     0   511 -2.095048335E-01 -1.514717521E+00 -1.555608021E+01  1.563105540E+01  0.000000000E+00  0.00000E+00  9.000E+00
      21     1     1     2   511   501 -1.399696652E+00  7.501524571E-01 -4.866759226E+00  5.119299248E+00  1.032382731E-07  0.00000E+00  9.000E+00
#rwgt            2         154   1509303.4645038475                3    13531924           0
<weights>
0.11145E+08
0.11366E+08
0.10624E+08
0.13814E+08
0.85126E+07
0.91702E+07
0.13910E+08
0.11226E+08
0.11066E+08
0.10982E+08
0.11069E+08
0.10981E+08
0.11203E+08
0.11064E+08
0.11077E+08
0.11176E+08
0.11089E+08
0.11200E+08
0.11179E+08
0.11172E+08
0.11202E+08
0.11193E+08
0.11199E+08
0.11134E+08
0.11238E+08
0.11221E+08
0.11093E+08
0.11187E+08
0.11113E+08
0.11134E+08
0.11196E+08
0.11085E+08
0.11224E+08
0.11170E+08
0.11117E+08
0.11296E+08
0.11009E+08
0.10778E+08
0.11554E+08
0.11047E+08
0.11237E+08
0.11112E+08
0.11181E+08
0.11244E+08
0.11035E+08
</weights>
</event>
<event>
      7  10001  1.11453E+07  5.83301E+00 -1.00000E+00  2.26255E-01
      -4    -1     0     0     0   502  0.000000000E+00  0.000000000E+00  1.237805506E+01  1.237805506E+01  0.000000000E+00  0.00000E+00  9.000E+00
      21    -1     0     0   502   501  0.000000000E+00  0.000000000E+00 -2.042708165E+00  2.042708165E+00  0.000000000E+00  0.00000E+00  9.000E+00
      23     2     1     2     0     0 -6.904445338E-01  2.123391334E+00  8.059661604E+00  8.770206306E+00  2.640619068E+00  0.00000E+00  9.000E+00
      11     1     3     3     0     0  6.540613159E-01  2.637237987E-01  4.858709952E-01  8.563978818E-01  5.110000000E-04  0.00000E+00  9.000E+00
     -11     1     3     3     0     0 -1.344505850E+00  1.859667536E+00  7.573790609E+00  7.913808424E+00  5.110000000E-04  0.00000E+00  9.000E+00
      -4     1     1     2     0   512  2.439354098E-01 -2.027381923E+00  3.660954738E+00  4.191941262E+00  0.000000000E+00  0.00000E+00  9.000E+00
      21     1     1     2   512   501  4.465091241E-01 -9.600941162E-02 -1.385269446E+00  1.458615660E+00  2.149076030E-07  0.00000E+00  9.000E+00
#rwgt            2          41   767881.10125631001                3    13535272           0
<weights>
0.11145E+08
0.11274E+08
0.10692E+08
0.13702E+08
0.85672E+07
0.91702E+07
0.13910E+08
0.11201E+08
0.11086E+08
0.10862E+08
0.10872E+08
0.10974E+08
0.11043E+08
0.10887E+08
0.10880E+08
0.11223E+08
0.11179E+08
0.11412E+08
0.11420E+08
0.11416E+08
0.11391E+08
0.11433E+08
0.11459E+08
0.11298E+08
0.11338E+08
0.11289E+08
0.11137E+08
0.11380E+08
0.11313E+08
0.11404E+08
0.11445E+08
0.11166E+08
0.11213E+08
0.11140E+08
0.11169E+08
0.11236E+08
0.11069E+08
0.11062E+08
0.11155E+08
0.11148E+08
0.11144E+08
0.11172E+08
0.11117E+08
0.11447E+08
0.10865E+08
</weights>
</event>
<event>
      6  10001 -1.11453E+07  8.94427E-01 -1.00000E+00  1.63770E-01
       2    -1     0     0   501     0  0.000000000E+00  0.000000000E+00  1.386311941E+02  1.386311941E+02  0.000000000E+00  0.00000E+00  9.000E+00
      21    -1     0     0   502   501  0.000000000E+00  0.000000000E+00 -4.225811276E-03  4.225811276E-03  0.000000000E+00  0.00000E+00  9.000E+00
      23     2     1     2     0     0  1.829005891E-01 -2.296032199E-01  1.225568056E+02  1.225625764E+02  1.152545154E+00  0.00000E+00  9.000E+00
      11     1     3     3     0     0 -4.546531739E-01  7.614736569E-02  3.753594436E+01  3.753877498E+01  5.110000000E-04  0.00000E+00  9.000E+00
     -11     1     3     3     0     0  6.375537630E-01 -3.057505856E-01  8.502086129E+01  8.502380145E+01  5.110000000E-04  0.00000E+00  9.000E+00
       2     1     1     2   502     0 -1.829005891E-01  2.296032199E-01  1.607016266E+01  1.607284350E+01  0.000000000E+00  0.00000E+00  9.000E+00
#rwgt            1          24  -5056861.1055722311                3    13535390           0
<weights>
-.11145E+08
-.12149E+08
-.10054E+08
-.14652E+08
-.80510E+07
-.92469E+07
-.13917E+08
-.11173E+08
-.11119E+08
-.10825E+08
-.10816E+08
-.10962E+08
-.11008E+08
-.10843E+08
-.10826E+08
-.11226E+08
-.11210E+08
-.11460E+08
-.11501E+08
-.11489E+08
-.11437E+08
-.11499E+08
-.11518E+08
-.11408E+08
-.11329E+08
-.11287E+08
-.11344E+08
-.11432E+08
-.11370E+08
-.11476E+08
-.11511E+08
-.11183E+08
-.11217E+08
-.11138E+08
-.11177E+08
-.11209E+08
-.11100E+08
-.11129E+08
-.11087E+08
-.11166E+08
-.11128E+08
-.11185E+08
-.11104E+08
-.11503E+08
-.10816E+08
</weights>
</event>
<event>
      7  10001  1.11453E+07  2.43154E+01 -1.00000E+00  1.59531E-01
       4    -1     0     0   501     0  0.000000000E+00  0.000000000E+00  1.762785579E+02  1.762785579E+02  0.000000000E+00  0.00000E+00  9.000E+00
      21    -1     0     0   511   501  0.000000000E+00  0.000000000E+00 -9.392084531E+01  9.392084531E+01  0.000000000E+00  0.00000E+00  9.000E+00
      23     2     1     2     0     0 -2.892176062E+00  1.007857779E+01  2.866801697E+01  3.059214703E+01  2.020358875E+00  0.00000E+00  9.000E+00
      11     1     3     3     0     0 -9.100827308E-01  6.025664485E+00  1.820443165E+01  1.919734917E+01  5.110000000E-04  0.00000E+00  9.000E+00
     -11     1     3     3     0     0 -1.982093331E+00  4.052913306E+00  1.046358532E+01  1.139479786E+01  5.110000000E-04  0.00000E+00  9.000E+00
       4     1     1     2   502     0  2.655244597E+01 -1.568500504E+01  1.433904630E+02  1.466692765E+02  0.000000000E+00  0.00000E+00  9.000E+00
      21     1     1     2   511   502 -2.366026991E+01  5.606427248E+00 -8.970076742E+01  9.293797972E+01  1.348699152E-06  0.00000E+00  9.000E+00
#rwgt            1          28   105843.89202114665                3    13536348           0
<weights>
0.11145E+08
0.11198E+08
0.11164E+08
0.11868E+08
0.10210E+08
0.10413E+08
0.12002E+08
0.11200E+08
0.11087E+08
0.10840E+08
0.10842E+08
0.10962E+08
0.11030E+08
0.10864E+08
0.10852E+08
0.11230E+08
0.11188E+08
0.11442E+08
0.11447E+08
0.11442E+08
0.11419E+08
0.11467E+08
0.11488E+08
0.11324E+08
0.11349E+08
0.11303E+08
0.11144E+08
0.11410E+08
0.11335E+08
0.11440E+08
0.11479E+08
0.11175E+08
0.11215E+08
0.11136E+08
0.11176E+08
0.11237E+08
0.11070E+08
0.11087E+08
0.11125E+08
0.11154E+08
0.11138E+08
0.11177E+08
0.11113E+08
0.11477E+08
0.10838E+08
</weights>
</event>
<event>
      6  10001 -1.11453E+07  8.94427E-01 -1.00000E+00  1.56393E-01
      21    -1     0     0   502   501  0.000000000E+00  0.000000000E+00  8.038735780E-03  8.038735780E-03  0.000000000E+00  0.00000E+00  9.000E+00
       2    -1     0     0   501     0  0.000000000E+00  0.000000000E+00 -8.080974429E+01  8.080974429E+01  0.000000000E+00  0.00000E+00  9.000E+00
      23     2     1     2     0     0  2.748122418E-01 -8.963349075E-02 -7.536770197E+01  7.537609663E+01  1.087145921E+00  0.00000E+00  9.000E+00
      11     1     3     3     0     0 -5.030572920E-02 -5.549531826E-01 -3.700988211E+01  3.701407675E+01  5.110000000E-04  0.00000E+00  9.000E+00
     -11     1     3     3     0     0  3.251179710E-01  4.653196918E-01 -3.835781986E+01  3.836201987E+01  5.110000000E-04  0.00000E+00  9.000E+00
       2     1     1     2   502     0 -2.748122418E-01  8.963349075E-02 -5.434003582E+00  5.441686399E+00  0.000000000E+00  0.00000E+00  9.000E+00
#rwgt            1          17  -4366777.6676368406                3    13554992           0
<weights>
-.11145E+08
-.12170E+08
-.99903E+07
-.14791E+08
-.80048E+07
-.91702E+07
-.13910E+08
-.11164E+08
-.11127E+08
-.11131E+08
-.11156E+08
-.11162E+08
-.11099E+08
-.11154E+08
-.11156E+08
-.11153E+08
-.11098E+08
-.11072E+08
-.11201E+08
-.11209E+08
-.11065E+08
-.11131E+08
-.11123E+08
-.11233E+08
-.11037E+08
-.11071E+08
-.11177E+08
-.11241E+08
-.10955E+08
-.11138E+08
-.11117E+08
-.11133E+08
-.11151E+08
-.11080E+08
-.11227E+08
-.11131E+08
-.11155E+08
-.11096E+08
-.11206E+08
-.11091E+08
-.11189E+08
-.11198E+08
-.11089E+08
-.11137E+08
-.11148E+08
</weights>
</event>
<event>
      6  10001  1.11453E+07  8.94427E-01 -1.00000E+00  5.83115E-01
      21    -1     0     0   502   501  0.000000000E+00  0.000000000E+00  2.726137308E+01  2.726137308E+01  0.000000000E+00  0.00000E+00  9.000E+00
      -2    -1     0     0     0   502  0.000000000E+00  0.000000000E+00 -7.216843509E-02  7.216843509E-02  0.000000000E+00  0.00000E+00  9.000E+00
      23     2     1     2     0     0 -3.062653634E-01  2.075089967E-01  4.940398886E+00  5.081660333E+00  1.130872286E+00  0.00000E+00  9.000E+00
      11     1     3     3     0     0  4.111377079E-01  1.345776407E-01  2.492376440E+00  2.529641464E+00  5.110000000E-04  0.00000E+00  9.000E+00
     -11     1     3     3     0     0 -7.174030714E-01  7.293135595E-02  2.448022446E+00  2.552018869E+00  5.110000000E-04  0.00000E+00  9.000E+00
      -2     1     1     2     0   501  3.062653634E-01 -2.075089967E-01  2.224880575E+01  2.225188118E+01  0.000000000E+00  0.00000E+00  9.000E+00
#rwgt            1          14   1466248.9288354116                3    13555905           0
<weights>
0.11145E+08
0.12962E+08
0.93236E+07
0.12760E+08
0.93249E+07
0.11146E+08
0.10877E+08
0.10869E+08
0.11522E+08
0.10793E+08
0.10737E+08
0.10970E+08
0.10934E+08
0.10795E+08
0.10753E+08
0.11183E+08
0.11322E+08
0.11542E+08
0.11562E+08
0.11537E+08
0.11520E+08
0.11592E+08
0.11578E+08
0.11565E+08
0.11265E+08
0.11346E+08
0.11385E+08
0.11539E+08
0.11384E+08
0.11586E+08
0.11585E+08
0.11172E+08
0.11255E+08
0.11134E+08
0.11195E+08
0.10992E+08
0.11347E+08
0.11239E+08
0.10985E+08
0.11185E+08
0.11109E+08
0.11225E+08
0.11061E+08
0.11570E+08
0.10759E+08
</weights>
</event>
<event>
      6  10001 -1.11453E+07  8.94427E-01 -1.00000E+00  1.76196E-01
      21    -1     0     0   502   501  0.000000000E+00  0.000000000E+00  1.534200057E-02  1.534200057E-02  0.000000000E+00  0.00000E+00  9.000E+00
       2    -1     0     0   501     0  0.000000000E+00  0.000000000E+00 -4.857647145E+01  4.857647145E+01  0.000000000E+00  0.00000E+00  9.000E+00
      23     2     1     2     0     0  2.541365701E-01 -2.193061199E-01 -3.972723854E+01  3.975154710E+01  1.348826958E+00  0.00000E+00  9.000E+00
      11     1     3     3     0     0  4.660925923E-01 -3.785081922E-01 -7.754799370E+00  7.778009019E+00  5.110000000E-04  0.00000E+00  9.000E+00
     -11     1     3     3     0     0 -2.119560223E-01  1.592020722E-01 -3.197243917E+01  3.197353808E+01  5.110000000E-04  0.00000E+00  9.000E+00
       2     1     1     2   502     0 -2.541365701E-01  2.193061199E-01 -8.833890913E+00  8.840266355E+00  0.000000000E+00  0.00000E+00  9.000E+00
#rwgt            1          17  -6888022.1182131739                3    13576190           0
<weights>
-.11145E+08
-.12551E+08
-.96066E+07
-.15254E+08
-.76973E+07
-.91702E+07
-.13910E+08
-.11187E+08
-.11104E+08
-.11073E+08
-.11113E+08
-.11149E+08
-.11059E+08
-.11105E+08
-.11112E+08
-.11103E+08
-.11192E+08
-.11078E+08
-.11300E+08
-.11312E+08
-.11068E+08
-.11177E+08
-.11172E+08
-.11236E+08
-.11103E+08
-.11116E+08
-.11155E+08
-.11312E+08
-.10933E+08
-.11175E+08
-.11155E+08
-.11143E+08
-.11155E+08
-.11067E+08
-.11253E+08
-.11121E+08
-.11168E+08
-.11029E+08
-.11267E+08
-.11079E+08
-.11199E+08
-.11207E+08
-.11079E+08
-.11189E+08
-.11099E+08
</weights>
</event>
<event>
      6  10001 -1.11453E+07  8.94427E-01 -1.00000E+00  1.85133E-01
      21    -1     0     0   502   501  0.000000000E+00  0.000000000E+00  4.817237000E+01  4.817237000E+01  0.000000000E+00  0.00000E+00  9.000E+00
       2    -1     0     0   501     0  0.000000000E+00  0.000000000E+00 -2.415956883E-02  2.415956883E-02  0.000000000E+00  0.00000E+00  9.000E+00
      23     2     1     2     0     0 -3.057362093E-01  6.398107400E-02  3.438821601E+01  3.443299024E+01  1.727382052E+00  0.00000E+00  9.000E+00
      11     1     3     3     0     0 -6.281362297E-01 -6.845678391E-01  2.024952998E+01  2.027083256E+01  5.110000000E-04  0.00000E+00  9.000E+00
     -11     1     3     3     0     0  3.224000204E-01  7.485489131E-01  1.413868603E+01  1.416215768E+01  5.110000000E-04  0.00000E+00  9.000E+00
       2     1     1     2   502     0  3.057362093E-01 -6.398107400E-02  1.375999442E+01  1.376353932E+01  0.000000000E+00  0.00000E+00  9.000E+00
#rwgt            1          17  -1035690.2116802469                3    13578379           0
<weights>
-.11145E+08
-.12718E+08
-.93588E+07
-.15461E+08
-.74989E+07
-.91675E+07
-.13910E+08
-.11129E+08
-.11178E+08
-.10817E+08
-.10799E+08
-.10962E+08
-.10994E+08
-.10832E+08
-.10810E+08
-.11220E+08
-.11228E+08
-.11477E+08
-.11515E+08
-.11502E+08
-.11453E+08
-.11519E+08
-.11532E+08
-.11435E+08
-.11322E+08
-.11297E+08
-.11350E+08
-.11454E+08
-.11376E+08
-.11499E+08
-.11528E+08
-.11184E+08
-.11222E+08
-.11136E+08
-.11181E+08
-.11179E+08
-.11135E+08
-.11152E+08
-.11065E+08
-.11170E+08
-.11124E+08
-.11191E+08
-.11097E+08
-.11518E+08
-.10803E+08
</weights>
</event>
<event>
      6  10001 -1.11453E+07  8.94427E-01 -1.00000E+00  6.06295E-01
      -2    -1     0     0     0   502  0.000000000E+00  0.000000000E+00  1.588329389E+01  1.588329389E+01  0.000000000E+00  0.00000E+00  9.000E+00
       2    -1     0     0   501     0  0.000000000E+00  0.000000000E+00 -2.397943045E-01  2.397943045E-01  0.000000000E+00  0.00000E+00  9.000E+00
      23     2     1     2     0     0 -2.995333893E-01 -3.142161122E-01  1.415146753E+01  1.456918611E+01  3.436378733E+00  0.00000E+00  9.000E+00
      11     1     3     3     0     0  7.026006679E-01  3.134533573E-01  1.257507856E+01  1.259859126E+01  5.110000000E-04  0.00000E+00  9.000E+00
     -11     1     3     3     0     0 -1.002134057E+00 -6.276694696E-01  1.576388965E+00  1.970594850E+00  5.110000000E-04  0.00000E+00  9.000E+00
      21     1     1     2   501   502  2.995333893E-01  3.142161122E-01  1.492032059E+00  1.553902082E+00  2.107342426E-08  0.00000E+00  9.000E+00
#rwgt            1           8  -465038.58956610732                3    13580700           0
<weights>
-.11145E+08
-.79074E+07
-.12969E+08
-.23362E+08
-.20993E+07
-.22355E+06
-.27644E+08
-.12108E+08
-.99686E+07
-.10951E+08
-.11108E+08
-.10937E+08
-.11281E+08
-.11026E+08
-.11096E+08
-.11384E+08
-.10792E+08
-.11167E+08
-.11247E+08
-.11279E+08
-.11141E+08
-.11152E+08
-.11289E+08
-.10858E+08
-.11509E+08
-.11077E+08
-.11123E+08
-.11029E+08
-.11323E+08
-.11069E+08
-.11229E+08
-.11205E+08
-.11092E+08
-.11155E+08
-.11109E+08
-.11958E+08
-.10264E+08
-.10726E+08
-.11472E+08
-.11094E+08
-.11201E+08
-.11034E+08
-.11265E+08
-.11250E+08
-.11033E+08
</weights>
</event>
<event>
      6  10001 -1.11453E+07  8.94427E-01 -1.00000E+00  6.28516E-01
       2    -1     0     0   501     0  0.000000000E+00  0.000000000E+00  9.513141020E+01  9.513141020E+01  0.000000000E+00  0.00000E+00  9.000E+00
      21    -1     0     0   502   501  0.000000000E+00  0.000000000E+00 -1.136681722E-02  1.136681722E-02  0.000000000E+00  0.00000E+00  9.000E+00
      23     2     1     2     0     0 -3.419767118E-01  3.004685757E-01  6.611985669E+01  6.613901765E+01  1.525443234E+00  0.00000E+00  9.000E+00
      11     1     3     3     0     0  3.705263457E-02  6.681997912E-02  6.094303309E+01  6.094308099E+01  5.110000000E-04  0.00000E+00  9.000E+00
     -11     1     3     3     0     0 -3.790293464E-01  2.336485966E-01  5.176823601E+00  5.195936660E+00  5.110000000E-04  0.00000E+00  9.000E+00
       2     1     1     2   502     0  3.419767118E-01 -3.004685757E-01  2.900018669E+01  2.900375937E+01  0.000000000E+00  0.00000E+00  9.000E+00
#rwgt            1          24  -9387617.5839214530                3    13583703           0
<weights>
-.11145E+08
-.12085E+08
-.10139E+08
-.14685E+08
-.81237E+07
-.91726E+07
-.13910E+08
-.11188E+08
-.11103E+08
-.10865E+08
-.10879E+08
-.10979E+08
-.11041E+08
-.10893E+08
-.10886E+08
-.11219E+08
-.11175E+08
-.11399E+08
-.11427E+08
-.11418E+08
-.11380E+08
-.11424E+08
-.11451E+08
-.11328E+08
-.11319E+08
-.11263E+08
-.11257E+08
-.11365E+08
-.11317E+08
-.11395E+08
-.11437E+08
-.11162E+08
-.11216E+08
-.11144E+08
-.11164E+08
-.11222E+08
-.11085E+08
-.11055E+08
-.11175E+08
-.11145E+08
-.11146E+08
-.11175E+08
-.11114E+08
-.11440E+08
-.10871E+08
</weights>
</event>
<event>
      6  10001 -1.11453E+07  8.94427E-01 -1.00000E+00  6.01946E-01
      21    -1     0     0   502   501  0.000000000E+00  0.000000000E+00  2.203515575E-02  2.203515575E-02  0.000000000E+00  0.00000E+00  9.000E+00
      -1    -1     0     0     0   502  0.000000000E+00  0.000000000E+00 -3.747062856E+01  3.747062856E+01  0.000000000E+00  0.00000E+00  9.000E+00
      23     2     1     2     0     0  1.397310300E-01 -3.238505360E-01 -1.742161059E+01  1.746257524E+01  1.142197153E+00  0.00000E+00  9.000E+00
      11     1     3     3     0     0 -2.607902415E-01 -3.142379502E-01 -2.320926182E+00  2.356577103E+00  5.110000000E-04  0.00000E+00  9.000E+00
     -11     1     3     3     0     0  4.005212715E-01 -9.612585836E-03 -1.510068441E+01  1.510599814E+01  5.110000000E-04  0.00000E+00  9.000E+00
      -1     1     1     2     0   501 -1.397310300E-01  3.238505360E-01 -2.002698280E+01  2.003008847E+01  0.000000000E+00  0.00000E+00  9.000E+00
#rwgt            1          15  -512341.45119010401                3    13585233           0
<weights>
-.11145E+08
-.12887E+08
-.92922E+07
-.15662E+08
-.74454E+07
-.91702E+07
-.13910E+08
-.11222E+08
-.11068E+08
-.10980E+08
-.11044E+08
-.11037E+08
-.11074E+08
-.11032E+08
-.11043E+08
-.11094E+08
-.11235E+08
-.11268E+08
-.11201E+08
-.11177E+08
-.11276E+08
-.11234E+08
-.11266E+08
-.11200E+08
-.11232E+08
-.11284E+08
-.11055E+08
-.11234E+08
-.11080E+08
-.11197E+08
-.11239E+08
-.11084E+08
-.11236E+08
-.11252E+08
-.11044E+08
-.11042E+08
-.11246E+08
-.10911E+08
-.11373E+08
-.11107E+08
-.11169E+08
-.11249E+08
-.11034E+08
-.11268E+08
-.11022E+08
</weights>
</event>
<event>
      6  10001 -1.11453E+07  8.94427E-01 -1.00000E+00  2.86981E-01
      21    -1     0     0   502   501  0.000000000E+00  0.000000000E+00  1.111975543E-02  1.111975543E-02  0.000000000E+00  0.00000E+00  9.000E+00
       2    -1     0     0   501     0  0.000000000E+00  0.000000000E+00 -3.844017245E+02  3.844017245E+02  0.000000000E+00  0.00000E+00  9.000E+00
      23     2     1     2     0     0  1.592964895E+00 -6.690925080E-02 -1.940055158E+02  1.940210794E+02  1.870052244E+00  0.00000E+00  9.000E+00
      11     1     3     3     0     0  2.501064400E-01  1.335610411E-01 -1.336227321E+02  1.336230329E+02  5.110000000E-04  0.00000E+00  9.000E+00
     -11     1     3     3     0     0  1.342858455E+00 -2.004702919E-01 -6.038278372E+01  6.039804655E+01  5.110000000E-04  0.00000E+00  9.000E+00
       2     1     1     2   502     0 -1.592964895E+00  6.690925080E-02 -1.903850889E+02  1.903917648E+02  0.000000000E+00  0.00000E+00  9.000E+00
#rwgt            1          17  -11645087.614972685                3    13587272           0
<weights>
-.11145E+08
-.12108E+08
-.99980E+07
-.14716E+08
-.80109E+07
-.91702E+07
-.13910E+08
-.11128E+08
-.11162E+08
-.11167E+08
-.11156E+08
-.11018E+08
-.11292E+08
-.11160E+08
-.11157E+08
-.11328E+08
-.10871E+08
-.11406E+08
-.10757E+08
-.10705E+08
-.11435E+08
-.11105E+08
-.11166E+08
-.11088E+08
-.11158E+08
-.11268E+08
-.11064E+08
-.10833E+08
-.11468E+08
-.11078E+08
-.11175E+08
-.11020E+08
-.11267E+08
-.11424E+08
-.10796E+08
-.11113E+08
-.11174E+08
-.11158E+08
-.11136E+08
-.11226E+08
-.11072E+08
-.11142E+08
-.11148E+08
-.11128E+08
-.11162E+08
</weights>
</event>
<event>
      7  10001  1.11453E+07  2.68957E+01 -1.00000E+00  1.56304E-01
       2    -1     0     0   501     0  0.000000000E+00  0.000000000E+00  2.639702180E+01  2.639702180E+01  0.000000000E+00  0.00000E+00  9.000E+00
      21    -1     0     0   502   501  0.000000000E+00  0.000000000E+00 -8.972232391E+00  8.972232391E+00  0.000000000E+00  0.00000E+00  9.000E+00
      23     2     1     2     0     0  4.491993640E+00  1.260740520E+00  8.244684670E+00  1.133288392E+01  6.220286088E+00  0.00000E+00  9.000E+00
      11     1     3     3     0     0  2.925214908E+00 -3.721735573E-01  1.773153276E-01  2.954121934E+00  5.110000000E-04  0.00000E+00  9.000E+00
     -11     1     3     3     0     0  1.566778732E+00  1.632914078E+00  8.067369343E+00  8.378761982E+00  5.110000000E-04  0.00000E+00  9.000E+00
       2     1     1     2   511     0  2.747535679E+00 -5.094060574E-01  1.466110204E+01  1.492502462E+01  0.000000000E+00  0.00000E+00  9.000E+00
      21     1     1     2   502   511 -7.239529319E+00 -7.513344629E-01 -5.480997301E+00  9.111345656E+00  7.862392639E-07  0.00000E+00  9.000E+00
#rwgt            2         248   4410501.6185916821                3    13588770           0
<weights>
0.11145E+08
0.10171E+08
0.12143E+08
0.12362E+08
0.97294E+07
0.91702E+07
0.13910E+08
0.11210E+08
0.11078E+08
0.10895E+08
0.10922E+08
0.10985E+08
0.11073E+08
0.10926E+08
0.10927E+08
0.11213E+08
0.11160E+08
0.11363E+08
0.11368E+08
0.11365E+08
0.11346E+08
0.11374E+08
0.11409E+08
0.11237E+08
0.11338E+08
0.11289E+08
0.11083E+08
0.11333E+08
0.11265E+08
0.11340E+08
0.11386E+08
0.11149E+08
0.11213E+08
0.11143E+08
0.11159E+08
0.11251E+08
0.11053E+08
0.10998E+08
0.11220E+08
0.11132E+08
0.11158E+08
0.11162E+08
0.11128E+08
0.11397E+08
0.10909E+08
</weights>
</event>
<event>
      7  10001  1.11453E+07  1.53757E+00 -1.00000E+00  4.10896E-01
       2    -1     0     0   501     0  0.000000000E+00  0.000000000E+00  3.270535002E+00  3.270535002E+00  0.000000000E+00  0.00000E+00  9.000E+00
       2    -1     0     0   502     0  0.000000000E+00  0.000000000E+00 -4.283080301E+00  4.283080301E+00  0.000000000E+00  0.00000E+00  9.000E+00
      23     2     1     2     0     0  1.646605998E-01  4.926990845E-01  2.323570088E+00  2.611651627E+00  1.073257083E+00  0.00000E+00  9.000E+00
      11     1     3     3     0     0  3.757943764E-01 -2.292192128E-01  8.660292376E-01  9.714781327E-01  5.110000000E-04  0.00000E+00  9.000E+00
     -11     1     3     3     0     0 -2.111337767E-01  7.219182972E-01  1.457540850E+00  1.640173494E+00  5.110000000E-04  0.00000E+00  9.000E+00
       2     1     1     2   502     0 -1.545739274E+00 -1.168522350E+00 -2.585297889E+00  3.230869784E+00  0.000000000E+00  0.00000E+00  9.000E+00
       2     1     1     2   501     0  1.381078675E+00  6.758232652E-01 -7.508174976E-01  1.711093892E+00  0.000000000E+00  0.00000E+00  9.000E+00
#rwgt            2         254   44052.015950407440                3    13588850           0
<weights>
0.11145E+08
0.11219E+08
0.10910E+08
0.13635E+08
0.87415E+07
0.91702E+07
0.13910E+08
0.11133E+08
0.11154E+08
0.10877E+08
0.10875E+08
0.11012E+08
0.11000E+08
0.10895E+08
0.10884E+08
0.11147E+08
0.11288E+08
0.11381E+08
0.11453E+08
0.11449E+08
0.11363E+08
0.11433E+08
0.11445E+08
0.11314E+08
0.11320E+08
0.11332E+08
0.11072E+08
0.11450E+08
0.11207E+08
0.11415E+08
0.11426E+08
0.11156E+08
0.11222E+08
0.11123E+08
0.11199E+08
0.11094E+08
0.11216E+08
0.11072E+08
0.11135E+08
0.11139E+08
0.11148E+08
0.11206E+08
0.11082E+08
0.11437E+08
0.10876E+08
</weights>
</event>
<event>
      7  10001  1.11453E+07  9.56542E-01 -1.00000E+00  5.80063E-01
      -5    -1     0     0     0   502  0.000000000E+00  0.000000000E+00  6.990092630E-02  6.990092630E-02  0.000000000E+00  0.00000E+00  9.000E+00
      21    -1     0     0   502   501  0.000000000E+00  0.000000000E+00 -2.294018755E+01  2.294018755E+01  0.000000000E+00  0.00000E+00  9.000E+00
      23     2     1     2     0     0  2.955929787E-01  1.293664902E-01 -1.974188663E+01  1.978433683E+01  1.254505907E+00  0.00000E+00  9.000E+00
      11     1     3     3     0     0 -4.403732322E-01 -1.726087119E-01 -5.524190018E+00  5.544402399E+00  5.110000000E-04  0.00000E+00  9.000E+00
     -11     1     3     3     0     0  7.359662109E-01  3.019752022E-01 -1.421769661E+01  1.423993443E+01  5.110000000E-04  0.00000E+00  9.000E+00
      -5     1     1     2     0   511 -1.969275703E-01 -3.191270156E-01 -2.850585741E+00  2.875145489E+00  0.000000000E+00  0.00000E+00  9.000E+00
      21     1     1     2   511   501 -9.866540835E-02  1.897605254E-01 -2.778142499E-01  3.506061569E-01  2.634178032E-08  0.00000E+00  9.000E+00
#rwgt            1           1   25454.028574979267                3    13589063           0
<weights>
0.11145E+08
0.14201E+08
0.79792E+07
0.13161E+08
0.86439E+07
0.11755E+08
0.99418E+07
0.11294E+08
0.10993E+08
0.10588E+08
0.10661E+08
0.10842E+08
0.10937E+08
0.10638E+08
0.10657E+08
0.11254E+08
0.11254E+08
0.11616E+08
0.11704E+08
0.11702E+08
0.11578E+08
0.11653E+08
0.11773E+08
0.11337E+08
0.11612E+08
0.11508E+08
0.11002E+08
0.11589E+08
0.11404E+08
0.11582E+08
0.11683E+08
0.11149E+08
0.11301E+08
0.11156E+08
0.11160E+08
0.11364E+08
0.10956E+08
0.10826E+08
0.11275E+08
0.11167E+08
0.11127E+08
0.11186E+08
0.11103E+08
0.11707E+08
0.10623E+08
</weights>
</event>
<event>
      6  10001 -1.11453E+07  8.94427E-01 -1.00000E+00  2.78250E-01
      21    -1     0     0   502   501  0.000000000E+00  0.000000000E+00  1.593795158E-02  1.593795158E-02  0.000000000E+00  0.00000E+00  9.000E+00
       2    -1     0     0   501     0  0.000000000E+00  0.000000000E+00 -5.310717404E+02  5.310717404E+02  0.000000000E+00  0.00000E+00  9.000E+00
      23     2     1     2     0     0  1.111198664E+00 -9.782422531E-01 -2.073238686E+02  2.073523594E+02  3.102056072E+00  0.00000E+00  9.000E+00
      11     1     3     3     0     0  1.316544710E+00 -8.743261377E-01 -4.407087782E+01  4.409920644E+01  5.110000000E-04  0.00000E+00  9.000E+00
     -11     1     3     3     0     0 -2.053460459E-01 -1.039161154E-01 -1.632529908E+02  1.632531530E+02  5.110000000E-04  0.00000E+00  9.000E+00
       2     1     1     2   502     0 -1.111198664E+00  9.782422531E-01 -3.237319338E+02  3.237353189E+02  0.000000000E+00  0.00000E+00  9.000E+00
#rwgt            1          17  -6266109.6553938361                3    13591537           0
<weights>
-.11145E+08
-.11912E+08
-.10174E+08
-.14477E+08
-.81520E+07
-.91702E+07
-.13910E+08
-.11131E+08
-.11159E+08
-.11164E+08
-.11148E+08
-.10972E+08
-.11341E+08
-.11156E+08
-.11151E+08
-.11248E+08
-.10986E+08
-.11496E+08
-.10653E+08
-.10582E+08
-.11539E+08
-.11110E+08
-.11172E+08
-.11023E+08
-.11230E+08
-.11382E+08
-.10998E+08
-.10711E+08
-.11629E+08
-.11063E+08
-.11194E+08
-.11034E+08
-.11255E+08
-.11557E+08
-.10643E+08
-.11089E+08
-.11196E+08
-.11142E+08
-.11156E+08
-.11267E+08
-.11037E+08
-.11131E+08
-.11160E+08
-.11134E+08
-.11157E+08
</weights>
</event>
<event>
      7  10001  1.11453E+07  9.35335E+00 -1.00000E+00  1.98624E-01
       2    -1     0     0   501     0  0.000000000E+00  0.000000000E+00  1.272242417E+02  1.272242417E+02  0.000000000E+00  0.00000E+00  9.000E+00
      21    -1     0     0   511   501  0.000000000E+00  0.000000000E+00 -1.448188094E+02  1.448188094E+02  0.000000000E+00  0.00000E+00  9.000E+00
      23     2     1     2     0     0 -2.777998290E+00 -2.873433093E+00  7.351413035E+01  7.364202763E+01  1.687299616E+00  0.00000E+00  9.000E+00
      11     1     3     3     0     0 -2.643072336E+00 -2.542336858E+00  7.165764128E+01  7.175142411E+01  5.110000000E-04  0.00000E+00  9.000E+00
     -11     1     3     3     0     0 -1.349259538E-01 -3.310962355E-01  1.856489070E+00  1.890603517E+00  5.110000000E-04  0.00000E+00  9.000E+00
       2     1     1     2   502     0  2.958311223E+00 -6.478179573E+00  5.325779805E+01  5.373184781E+01  0.000000000E+00  0.00000E+00  9.000E+00
      21     1     1     2   511   502 -1.803129334E-01  9.351612666E+00 -1.443664962E+02  1.446691757E+02  1.907348633E-06  0.00000E+00  9.000E+00
#rwgt            1          24   1811110.1634606440                3    13592842           0
<weights>
0.11145E+08
0.12074E+08
0.10206E+08
0.11287E+08
0.10442E+08
0.11488E+08
0.10351E+08
0.11186E+08
0.11104E+08
0.10668E+08
0.10648E+08
0.10898E+08
0.10912E+08
0.10684E+08
0.10658E+08
0.11253E+08
0.11275E+08
0.11625E+08
0.11696E+08
0.11682E+08
0.11588E+08
0.11689E+08
0.11717E+08
0.11544E+08
0.11420E+08
0.11363E+08
0.11408E+08
0.11598E+08
0.11495E+08
0.11663E+08
0.11707E+08
0.11211E+08
0.11248E+08
0.11140E+08
0.11189E+08
0.11225E+08
0.11094E+08
0.11181E+08
0.11013E+08
0.11206E+08
0.11093E+08
0.11208E+08
0.11080E+08
0.11688E+08
0.10649E+08
</weights>
</event>
<event>
      7  10001  1.11453E+07  1.68735E+00 -1.00000E+00  3.88736E-01
       4    -1     0     0   501     0  0.000000000E+00  0.000000000E+00  2.314557804E+00  2.314557804E+00  0.000000000E+00  0.00000E+00  9.000E+00
      21    -1     0     0   511   502  0.000000000E+00  0.000000000E+00 -1.382956462E+02  1.382956462E+02  0.000000000E+00  0.00000E+00  9.000E+00
      23     2     1     2     0     0 -8.265334473E-03 -2.321659472E-01 -6.666945226E-01  1.994093899E+00  1.864928832E+00  0.00000E+00  9.000E+00
      11     1     3     3     0     0  6.944541407E-02 -9.317629113E-01  1.159039157E-01  9.415087717E-01  5.110000000E-04  0.00000E+00  9.000E+00
     -11     1     3     3     0     0 -7.771074854E-02  6.995969640E-01 -7.825984384E-01  1.052585127E+00  5.110000000E-04  0.00000E+00  9.000E+00
      21     1     1     2   501   502 -1.177880525E+00 -9.679179906E-01  1.292554723E+00  1.998740974E+00  3.650024150E-08  0.00000E+00  9.000E+00
       4     1     1     2   511     0  1.186145860E+00  1.200083938E+00 -1.366069486E+02  1.366173692E+02  0.000000000E+00  0.00000E+00  9.000E+00
#rwgt            1          27   232535.59216520863                3    13604308           0
<weights>
0.11145E+08
0.13576E+08
0.88785E+07
0.12398E+08
0.93286E+07
0.11716E+08
0.10002E+08
0.11202E+08
0.11084E+08
0.10747E+08
0.10714E+08
0.10916E+08
0.10973E+08
0.10756E+08
0.10728E+08
0.11245E+08
0.11258E+08
0.11577E+08
0.11577E+08
0.11575E+08
0.11542E+08
0.11618E+08
0.11628E+08
0.11418E+08
0.11415E+08
0.11399E+08
0.11117E+08
0.11561E+08
0.11419E+08
0.11601E+08
0.11629E+08
0.11215E+08
0.11220E+08
0.11122E+08
0.11203E+08
0.11249E+08
0.11062E+08
0.11209E+08
0.10981E+08
0.11195E+08
0.11104E+08
0.11186E+08
0.11103E+08
0.11610E+08
0.10722E+08
</weights>
</event>
<event>
      7  10001  1.11453E+07  8.32411E+00 -1.00000E+00  2.04778E-01
      21    -1     0     0   502   501  0.000000000E+00  0.000000000E+00  2.692507306E-01  2.692507306E-01  0.000000000E+00  0.00000E+00  9.000E+00
       2    -1     0     0   501     0  0.000000000E+00  0.000000000E+00 -1.121856456E+02  1.121856456E+02  0.000000000E+00  0.00000E+00  9.000E+00
      23     2     1     2     0     0  1.142829903E-01 -4.203302273E-01 -1.081937613E+02  1.082016328E+02  1.230295461E+00  0.00000E+00  9.000E+00
      11     1     3     3     0     0  2.904953259E-01 -5.591903880E-01 -1.039756205E+02  1.039775299E+02  5.110000000E-04  0.00000E+00  9.000E+00
     -11     1     3     3     0     0 -1.762123356E-01  1.388601607E-01 -4.218140808E+00  4.224102871E+00  5.110000000E-04  0.00000E+00  9.000E+00
       2     1     1     2   511     0  1.605554723E-01  2.544658303E-01 -3.882851659E+00  3.894491998E+00  0.000000000E+00  0.00000E+00  9.000E+00
      21     1     1     2   502   511 -2.748384626E-01  1.658643971E-01  1.602180594E-01  3.587715225E-01  4.745396968E-07  0.00000E+00  9.000E+00
#rwgt            2         189   23392751.169177897                3    13605219           0
<weights>
0.11145E+08
0.10855E+08
0.11282E+08
0.13193E+08
0.90397E+07
0.91702E+07
0.13910E+08
0.11147E+08
0.11143E+08
0.11158E+08
0.11169E+08
0.11152E+08
0.11133E+08
0.11170E+08
0.11170E+08
0.11207E+08
0.11019E+08
0.11107E+08
0.11120E+08
0.11122E+08
0.11105E+08
0.11113E+08
0.11116E+08
0.11224E+08
0.11020E+08
0.11070E+08
0.11177E+08
0.11178E+08
0.11016E+08
0.11122E+08
0.11113E+08
0.11114E+08
0.11165E+08
0.11114E+08
0.11179E+08
0.11137E+08
0.11148E+08
0.11138E+08
0.11159E+08
0.11110E+08
0.11171E+08
0.11188E+08
0.11099E+08
0.11119E+08
0.11167E+08
</weights>
</event>
<event>
      7  10001 -1.11453E+07  9.17430E-01 -1.00000E+00  5.97046E-01
      21    -1     0     0   512   501  0.000000000E+00  0.000000000E+00  4.564379251E+01  4.564379251E+01  0.000000000E+00  0.00000E+00  9.000E+00
      -1    -1     0     0     0   502  0.000000000E+00  0.000000000E+00 -1.074549645E+01  1.074549645E+01  0.000000000E+00  0.00000E+00  9.000E+00
      23     2     1     2     0     0 -3.835379448E-01 -1.710993264E-01 -8.340367681E+00  8.471983411E+00  1.427022613E+00  0.00000E+00  9.000E+00
      11     1     3     3     0     0  2.200667831E-01 -5.340863604E-01 -1.723342729E+00  1.817577523E+00  5.110000000E-04  0.00000E+00  9.000E+00
     -11     1     3     3     0     0 -6.036047279E-01  3.629870341E-01 -6.617024952E+00  6.654405889E+00  5.110000000E-04  0.00000E+00  9.000E+00
      -1     1     1     2     0   501  4.422450445E-01 -7.444506933E-01 -2.254408582E+00  2.414983555E+00  0.000000000E+00  0.00000E+00  9.000E+00
      21     1     1     2   512   502 -5.870709970E-02  9.155500197E-01  4.549307232E+01  4.550232200E+01  0.000000000E+00  0.00000E+00  9.000E+00
#rwgt            1          15  -193960.17382113688                3    13605679           0
<weights>
-.11145E+08
-.85929E+07
-.12890E+08
-.18063E+08
-.60011E+07
-.43353E+07
-.21332E+08
-.11268E+08
-.11026E+08
-.11018E+08
-.11097E+08
-.11021E+08
-.11188E+08
-.11074E+08
-.11097E+08
-.11207E+08
-.11046E+08
-.11181E+08
-.11187E+08
-.11187E+08
-.11177E+08
-.11172E+08
-.11211E+08
-.11085E+08
-.11273E+08
-.11170E+08
-.11107E+08
-.11139E+08
-.11158E+08
-.11124E+08
-.11188E+08
-.11123E+08
-.11179E+08
-.11158E+08
-.11127E+08
-.11367E+08
-.10926E+08
-.10865E+08
-.11432E+08
-.11082E+08
-.11204E+08
-.11123E+08
-.11169E+08
-.11220E+08
-.11064E+08
</weights>
</event>
<event>
      7  10001  1.11453E+07  2.01850E+00 -1.00000E+00  3.52275E-01
       4    -1     0     0   501     0  0.000000000E+00  0.000000000E+00  6.248896726E-01  6.248896726E-01  0.000000000E+00  0.00000E+00  9.000E+00
      21    -1     0     0   502   501  0.000000000E+00  0.000000000E+00 -3.224548692E+00  3.224548692E+00  0.000000000E+00  0.00000E+00  9.000E+00
      23     2     1     2     0     0  1.176011794E-01 -1.878743690E-01 -1.964295518E-01  1.194130212E+00  1.156821326E+00  0.00000E+00  9.000E+00
      11     1     3     3     0     0 -4.536306779E-02 -1.719564117E-01 -6.699219589E-01  6.931251746E-01  5.110000000E-04  0.00000E+00  9.000E+00
     -11     1     3     3     0     0  1.629642472E-01 -1.591795728E-02  4.734924072E-01  5.010050379E-01  5.110000000E-04  0.00000E+00  9.000E+00
       4     1     1     2   511     0 -2.323390457E-01 -9.427727108E-02 -1.873326722E-02  2.514370126E-01  0.000000000E+00  0.00000E+00  9.000E+00
      21     1     1     2   502   511  1.147378663E-01  2.821516401E-01 -2.384496201E+00  2.403871140E+00  2.980232239E-08  0.00000E+00  9.000E+00
#rwgt            2         308   698476.80057857919                3    13616314           0
<weights>
0.11145E+08
0.11883E+08
0.10066E+08
0.14442E+08
0.80655E+07
0.91702E+07
0.13910E+08
0.11204E+08
0.11084E+08
0.10871E+08
0.10885E+08
0.10977E+08
0.11051E+08
0.10898E+08
0.10892E+08
0.11221E+08
0.11173E+08
0.11400E+08
0.11405E+08
0.11402E+08
0.11379E+08
0.11418E+08
0.11446E+08
0.11281E+08
0.11338E+08
0.11289E+08
0.11118E+08
0.11368E+08
0.11301E+08
0.11388E+08
0.11430E+08
0.11162E+08
0.11213E+08
0.11140E+08
0.11167E+08
0.11240E+08
0.11065E+08
0.11047E+08
0.11170E+08
0.11144E+08
0.11147E+08
0.11170E+08
0.11120E+08
0.11434E+08
0.10877E+08
</weights>
</event>
<event>
      7  10001  1.11453E+07  1.34948E+00 -1.00000E+00  4.59080E-01
      21    -1     0     0   502   512  0.000000000E+00  0.000000000E+00  9.034790683E+01  9.034790683E+01  0.000000000E+00  0.00000E+00  9.000E+00
      -2    -1     0     0     0   502  0.000000000E+00  0.000000000E+00 -1.585401751E-01  1.585401751E-01  0.000000000E+00  0.00000E+00  9.000E+00
      23     2     1     2     0     0 -2.939042299E-01 -8.656465831E-01  1.204295327E+01  1.215877638E+01  1.402638859E+00  0.00000E+00  9.000E+00
      11     1     3     3     0     0 -5.234044069E-01 -1.133058430E+00  7.593385792E+00  7.695276579E+00  5.110000000E-04  0.00000E+00  9.000E+00
     -11     1     3     3     0     0  2.295001770E-01  2.674118465E-01  4.449567483E+00  4.463499801E+00  5.110000000E-04  0.00000E+00  9.000E+00
      -2     1     1     2     0   501 -1.044858496E+00  1.035377178E+00  5.638906345E+00  5.827606708E+00  0.000000000E+00  0.00000E+00  9.000E+00
      21     1     1     2   501   512  1.338762726E+00 -1.697305952E-01  7.250750703E+01  7.252006392E+01  0.000000000E+00  0.00000E+00  9.000E+00
#rwgt            1          14   338043.58455019811                3    13618769           0
<weights>
0.11145E+08
0.13393E+08
0.90470E+07
0.11773E+08
0.10001E+08
0.12124E+08
0.93753E+07
0.10861E+08
0.11514E+08
0.10792E+08
0.10733E+08
0.10971E+08
0.10930E+08
0.10793E+08
0.10750E+08
0.11178E+08
0.11331E+08
0.11549E+08
0.11554E+08
0.11531E+08
0.11527E+08
0.11596E+08
0.11580E+08
0.11556E+08
0.11268E+08
0.11360E+08
0.11319E+08
0.11547E+08
0.11376E+08
0.11591E+08
0.11588E+08
0.11169E+08
0.11260E+08
0.11136E+08
0.11193E+08
0.10972E+08
0.11367E+08
0.11242E+08
0.10981E+08
0.11185E+08
0.11108E+08
0.11230E+08
0.11056E+08
0.11573E+08
0.10757E+08
</weights>
</event>
<event>
      6  10001 -1.11453E+07  8.94427E-01 -1.00000E+00  4.27753E-01
      21    -1     0     0   502   501  0.000000000E+00  0.000000000E+00  2.079596175E+00  2.079596175E+00  0.000000000E+00  0.00000E+00  9.000E+00
      -4    -1     0     0     0   502  0.000000000E+00  0.000000000E+00 -6.064074142E-01  6.064074142E-01  0.000000000E+00  0.00000E+00  9.000E+00
      23     2     1     2     0     0  1.682993753E-01  2.453452274E-01  1.110418364E+00  2.216832702E+00  1.895468102E+00  0.00000E+00  9.000E+00
      11     1     3     3     0     0  7.184518789E-01  3.190137748E-01  1.388823955E+00  1.595861876E+00  5.110000000E-04  0.00000E+00  9.000E+00
     -11     1     3     3     0     0 -5.501525036E-01 -7.366854742E-02 -2.784055908E-01  6.209708256E-01  5.110000000E-04  0.00000E+00  9.000E+00
      -4     1     1     2     0   501 -1.682993753E-01 -2.453452274E-01  3.627703968E-01  4.691708869E-01  0.000000000E+00  0.00000E+00  9.000E+00
#rwgt            1          12  -748423.62721660989                3    13630682           0
<weights>
-.11145E+08
-.92914E+07
-.12008E+08
-.17190E+08
-.63729E+07
-.54760E+07
-.19581E+08
-.11208E+08
-.11080E+08
-.10916E+08
-.10951E+08
-.10997E+08
-.11083E+08
-.10951E+08
-.10955E+08
-.11210E+08
-.11142E+08
-.11331E+08
-.11340E+08
-.11336E+08
-.11317E+08
-.11339E+08
-.11377E+08
-.11222E+08
-.11315E+08
-.11254E+08
-.11106E+08
-.11295E+08
-.11251E+08
-.11303E+08
-.11352E+08
-.11140E+08
-.11212E+08
-.11148E+08
-.11151E+08
-.11242E+08
-.11060E+08
-.10970E+08
-.11252E+08
-.11124E+08
-.11165E+08
-.11162E+08
-.11128E+08
-.11367E+08
-.10935E+08
</weights>
</event>
<event>
      6  10001 -1.11453E+07  8.94427E-01 -1.00000E+00  5.01274E-01
       2    -1     0     0   501     0  0.000000000E+00  0.000000000E+00  2.544660175E+02  2.544660175E+02  0.000000000E+00  0.00000E+00  9.000E+00
      21    -1     0     0   502   501  0.000000000E+00  0.000000000E+00 -3.593254840E-03  3.593254840E-03  0.000000000E+00  0.00000E+00  9.000E+00
      23     2     1     2     0     0  1.593988520E-01  2.859032907E-01  2.432729311E+02  2.432753308E+02  1.029748287E+00  0.00000E+00  9.000E+00
      11     1     3     3     0     0  2.581202659E-01  7.581106243E-02  1.586231712E+01  1.586459826E+01  5.110000000E-04  0.00000E+00  9.000E+00
     -11     1     3     3     0     0 -9.872141389E-02  2.100922283E-01  2.274106140E+02  2.274107325E+02  5.110000000E-04  0.00000E+00  9.000E+00
       2     1     1     2   502     0 -1.593988520E-01 -2.859032907E-01  1.118949312E+01  1.119428001E+01  0.000000000E+00  0.00000E+00  9.000E+00
#rwgt            1          24  -17534774.896553807                3    13638782           0
<weights>
-.11145E+08
-.11995E+08
-.10160E+08
-.14587E+08
-.81414E+07
-.91650E+07
-.13909E+08
-.11182E+08
-.11108E+08
-.10843E+08
-.10844E+08
-.10969E+08
-.11024E+08
-.10865E+08
-.10853E+08
-.11223E+08
-.11195E+08
-.11433E+08
-.11466E+08
-.11457E+08
-.11412E+08
-.11465E+08
-.11490E+08
-.11364E+08
-.11328E+08
-.11281E+08
-.11279E+08
-.11404E+08
-.11344E+08
-.11439E+08
-.11478E+08
-.11174E+08
-.11216E+08
-.11140E+08
-.11172E+08
-.11218E+08
-.11090E+08
-.11093E+08
-.11122E+08
-.11157E+08
-.11136E+08
-.11180E+08
-.11109E+08
-.11475E+08
-.10841E+08
</weights>
</event>
<event>
      6  10001 -1.11453E+07  8.94427E-01 -1.00000E+00  1.56504E-01
      -2    -1     0     0     0   502  0.000000000E+00  0.000000000E+00  9.135851082E+01  9.135851082E+01  0.000000000E+00  0.00000E+00  9.000E+00
      21    -1     0     0   502   501  0.000000000E+00  0.000000000E+00 -9.810485308E-03  9.810485308E-03  0.000000000E+00  0.00000E+00  9.000E+00
      23     2     1     2     0     0  3.451012519E-01  4.069932112E-02  5.342285656E+01  5.344088562E+01  1.343838524E+00  0.00000E+00  9.000E+00
      11     1     3     3     0     0 -2.371961216E-01  1.073050935E-01  2.302807008E+00  2.317476377E+00  5.110000000E-04  0.00000E+00  9.000E+00
     -11     1     3     3     0     0  5.822973735E-01 -6.660577238E-02  5.112004955E+01  5.112340924E+01  5.110000000E-04  0.00000E+00  9.000E+00
      -2     1     1     2     0   501 -3.451012519E-01 -4.069932112E-02  3.792584378E+01  3.792743568E+01  0.000000000E+00  0.00000E+00  9.000E+00
#rwgt            1           7  -1172553.6299897437                3    13640003           0
<weights>
-.11145E+08
-.12534E+08
-.95578E+07
-.15242E+08
-.76584E+07
-.91656E+07
-.13909E+08
-.11180E+08
-.11111E+08
-.10840E+08
-.10840E+08
-.10968E+08
-.11021E+08
-.10862E+08
-.10849E+08
-.11223E+08
-.11197E+08
-.11437E+08
-.11472E+08
-.11462E+08
-.11415E+08
-.11470E+08
-.11493E+08
-.11373E+08
-.11327E+08
-.11280E+08
-.11301E+08
-.11407E+08
-.11348E+08
-.11444E+08
-.11482E+08
-.11174E+08
-.11217E+08
-.11140E+08
-.11172E+08
-.11216E+08
-.11093E+08
-.11098E+08
-.11121E+08
-.11158E+08
-.11135E+08
-.11181E+08
-.11108E+08
-.11479E+08
-.10837E+08
</weights>
</event>
<event>
      6  10001 -1.11453E+07  8.94427E-01 -1.00000E+00  3.81566E-01
      21    -1     0     0   502   501  0.000000000E+00  0.000000000E+00  9.873853685E-03  9.873853685E-03  0.000000000E+00  0.00000E+00  9.000E+00
       2    -1     0     0   501     0  0.000000000E+00  0.000000000E+00 -3.514998847E+02  3.514998847E+02  0.000000000E+00  0.00000E+00  9.000E+00
      23     2     1     2     0     0 -7.883360264E-02  8.700935014E-01 -1.361072720E+02  1.361252478E+02  2.032319192E+00  0.00000E+00  9.000E+00
      11     1     3     3     0     0  5.252085043E-01 -4.058666317E-01 -6.863135129E+01  6.863456092E+01  5.110000000E-04  0.00000E+00  9.000E+00
     -11     1     3     3     0     0 -6.040421069E-01  1.275960133E+00 -6.747592073E+01  6.749068691E+01  5.110000000E-04  0.00000E+00  9.000E+00
       2     1     1     2   502     0  7.883360264E-02 -8.700935014E-01 -2.153827388E+02  2.153845107E+02  0.000000000E+00  0.00000E+00  9.000E+00
#rwgt            1          17  -7823741.3214066662                3    13641595           0
<weights>
-.11144E+08
-.12159E+08
-.99405E+07
-.14778E+08
-.79649E+07
-.91692E+07
-.13908E+08
-.11126E+08
-.11161E+08
-.11167E+08
-.11156E+08
-.11027E+08
-.11281E+08
-.11160E+08
-.11157E+08
-.11329E+08
-.10866E+08
-.11385E+08
-.10778E+08
-.10731E+08
-.11411E+08
-.11104E+08
-.11162E+08
-.11099E+08
-.11144E+08
-.11249E+08
-.11073E+08
-.10855E+08
-.11435E+08
-.11080E+08
-.11169E+08
-.11022E+08
-.11262E+08
-.11398E+08
-.10823E+08
-.11115E+08
-.11169E+08
-.11159E+08
-.11132E+08
-.11217E+08
-.11077E+08
-.11143E+08
-.11144E+08
-.11125E+08
-.11162E+08
</weights>
</event>
<event>
      6  10001 -1.11453E+07  8.94427E-01 -1.00000E+00  3.82383E-01
      21    -1     0     0   502   501  0.000000000E+00  0.000000000E+00  1.942496628E-02  1.942496628E-02  0.000000000E+00  0.00000E+00  9.000E+00
       2    -1     0     0   501     0  0.000000000E+00  0.000000000E+00 -1.218306754E+02  1.218306754E+02  0.000000000E+00  0.00000E+00  9.000E+00
      23     2     1     2     0     0 -1.015229508E+00 -2.988184221E-01 -9.998924505E+01  1.000024483E+02  1.233105745E+00  0.00000E+00  9.000E+00
      11     1     3     3     0     0 -7.036494613E-01 -8.080434616E-02 -2.039486655E+01  2.040716134E+01  5.110000000E-04  0.00000E+00  9.000E+00
     -11     1     3     3     0     0 -3.115800463E-01 -2.180140759E-01 -7.959437850E+01  7.959528693E+01  5.110000000E-04  0.00000E+00  9.000E+00
       2     1     1     2   502     0  1.015229508E+00  2.988184221E-01 -2.182200537E+01  2.184765209E+01  0.000000000E+00  0.00000E+00  9.000E+00
#rwgt            1          17  -7933402.5554947909                3    13642418           0
<weights>
-.11145E+08
-.12733E+08
-.94098E+07
-.15475E+08
-.75396E+07
-.91702E+07
-.13910E+08
-.11145E+08
-.11145E+08
-.11161E+08
-.11171E+08
-.11151E+08
-.11137E+08
-.11172E+08
-.11171E+08
-.11215E+08
-.11009E+08
-.11113E+08
-.11109E+08
-.11110E+08
-.11111E+08
-.11111E+08
-.11116E+08
-.11223E+08
-.11019E+08
-.11070E+08
-.11176E+08
-.11169E+08
-.11025E+08
-.11121E+08
-.11113E+08
-.11112E+08
-.11167E+08
-.11119E+08
-.11172E+08
-.11138E+08
-.11147E+08
-.11143E+08
-.11153E+08
-.11113E+08
-.11169E+08
-.11187E+08
-.11101E+08
-.11117E+08
-.11168E+08
</weights>
</event>
<event>
      7  10001  1.11453E+07  2.24889E+00 -1.00000E+00  3.33506E-01
       3    -1     0     0   502     0  0.000000000E+00  0.000000000E+00  1.446377862E+01  1.446377862E+01  0.000000000E+00  0.00000E+00  9.000E+00
      -4    -1     0     0     0   502  0.000000000E+00  0.000000000E+00 -1.019733627E+01  1.019733627E+01  0.000000000E+00  0.00000E+00  9.000E+00
      23     2     1     2     0     0 -3.830238644E-02  5.133854289E-01 -2.876794183E+00  3.476404670E+00  1.882661146E+00  0.00000E+00  9.000E+00
      11     1     3     3     0     0  2.789847420E-01  6.452452350E-01 -3.022513328E+00  3.103185618E+00  5.110000000E-04  0.00000E+00  9.000E+00
     -11     1     3     3     0     0 -3.172871284E-01 -1.318598061E-01  1.457191455E-01  3.732190521E-01  5.110000000E-04  0.00000E+00  9.000E+00
      -4     1     1     2     0   501 -1.873144322E+00 -1.698234541E+00 -6.699376394E+00  7.160608513E+00  0.000000000E+00  0.00000E+00  9.000E+00
       3     1     1     2   501     0  1.911446708E+00  1.184849112E+00  1.384261293E+01  1.402410171E+01  0.000000000E+00  0.00000E+00  9.000E+00
#rwgt            1          12   205934.32678996684                3    13643767           0
<weights>
0.11145E+08
0.15831E+08
0.68857E+07
0.11593E+08
0.99251E+07
0.14065E+08
0.63957E+07
0.11253E+08
0.11031E+08
0.10589E+08
0.10575E+08
0.10830E+08
0.10922E+08
0.10597E+08
0.10585E+08
0.11252E+08
0.11342E+08
0.11714E+08
0.11763E+08
0.11763E+08
0.11670E+08
0.11763E+08
0.11835E+08
0.11438E+08
0.11599E+08
0.11607E+08
0.10970E+08
0.11727E+08
0.11459E+08
0.11727E+08
0.11785E+08
0.11213E+08
0.11267E+08
0.11123E+08
0.11207E+08
0.11341E+08
0.10978E+08
0.11093E+08
0.10976E+08
0.11216E+08
0.11086E+08
0.11181E+08
0.11109E+08
0.11774E+08
0.10572E+08
</weights>
</event>
<event>
      7  10001  1.11453E+07  1.53474E+00 -1.00000E+00  4.11362E-01
       2    -1     0     0   501     0  0.000000000E+00  0.000000000E+00  1.229293552E+01  1.229293552E+01  0.000000000E+00  0.00000E+00  9.000E+00
       2    -1     0     0   502     0  0.000000000E+00  0.000000000E+00 -4.792229574E+00  4.792229574E+00  0.000000000E+00  0.00000E+00  9.000E+00
      23     2     1     2     0     0 -4.892021867E-01  1.816822697E+00 -1.593719019E+00  3.837473458E+00  2.940424925E+00  0.00000E+00  9.000E+00
      11     1     3     3     0     0  2.523044602E-01  4.191313611E-02 -1.875950290E+00  1.893305048E+00  5.110000000E-04  0.00000E+00  9.000E+00
     -11     1     3     3     0     0 -7.415066469E-01  1.774909561E+00  2.822312716E-01  1.944168410E+00  5.110000000E-04  0.00000E+00  9.000E+00
       2     1     1     2   502     0  1.517797202E+00 -2.955872444E+00  1.059344893E+01  1.110234437E+01  0.000000000E+00  0.00000E+00  9.000E+00
       2     1     1     2   501     0 -1.028595015E+00  1.139049747E+00 -1.499023968E+00  2.145347265E+00  0.000000000E+00  0.00000E+00  9.000E+00
#rwgt            2         254   91410.708741042487                3    13652635           0
<weights>
0.11145E+08
0.10806E+08
0.11392E+08
0.13133E+08
0.91282E+07
0.91702E+07
0.13910E+08
0.11138E+08
0.11149E+08
0.10880E+08
0.10881E+08
0.11015E+08
0.11000E+08
0.10899E+08
0.10890E+08
0.11143E+08
0.11290E+08
0.11372E+08
0.11453E+08
0.11449E+08
0.11354E+08
0.11426E+08
0.11440E+08
0.11309E+08
0.11319E+08
0.11330E+08
0.11070E+08
0.11448E+08
0.11197E+08
0.11409E+08
0.11419E+08
0.11155E+08
0.11221E+08
0.11121E+08
0.11201E+08
0.11093E+08
0.11216E+08
0.11066E+08
0.11141E+08
0.11137E+08
0.11150E+08
0.11206E+08
0.11081E+08
0.11431E+08
0.10881E+08
</weights>
</event>
<event>
      7  10001  1.11453E+07  4.04675E+00 -1.00000E+00  2.59145E-01
      21    -1     0     0   502   501  0.000000000E+00  0.000000000E+00  4.001071311E+00  4.001071311E+00  0.000000000E+00  0.00000E+00  9.000E+00
       4    -1     0     0   501     0  0.000000000E+00  0.000000000E+00 -8.154626447E+00  8.154626447E+00  0.000000000E+00  0.00000E+00  9.000E+00
      23     2     1     2     0     0 -2.870489820E-01 -7.360010723E-01 -5.302297823E+00  5.520675047E+00  1.318861659E+00  0.00000E+00  9.000E+00
      11     1     3     3     0     0  9.610384085E-02 -8.333324099E-01 -4.841078304E+00  4.913218727E+00  5.110000000E-04  0.00000E+00  9.000E+00
     -11     1     3     3     0     0 -3.831528229E-01  9.733133768E-02 -4.612195189E-01  6.074563200E-01  5.110000000E-04  0.00000E+00  9.000E+00
       4     1     1     2   511     0 -1.035956595E+00  5.746566859E-01  3.630022628E+00  3.818442176E+00  0.000000000E+00  0.00000E+00  9.000E+00
      21     1     1     2   502   511  1.323005577E+00  1.613443864E-01 -2.481279940E+00  2.816580535E+00  4.161667837E-07  0.00000E+00  9.000E+00
#rwgt            1          19   3591836.6052645366                3    13652829           0
<weights>
0.11145E+08
0.12410E+08
0.97059E+07
0.13073E+08
0.90909E+07
0.10533E+08
0.11817E+08
0.11229E+08
0.11058E+08
0.10777E+08
0.10791E+08
0.10923E+08
0.11020E+08
0.10801E+08
0.10799E+08
0.11226E+08
0.11230E+08
0.11494E+08
0.11517E+08
0.11515E+08
0.11468E+08
0.11519E+08
0.11570E+08
0.11309E+08
0.11440E+08
0.11417E+08
0.11034E+08
0.11483E+08
0.11333E+08
0.11483E+08
0.11535E+08
0.11170E+08
0.11236E+08
0.11137E+08
0.11176E+08
0.11291E+08
0.11019E+08
0.11022E+08
0.11142E+08
0.11162E+08
0.11133E+08
0.11167E+08
0.11123E+08
0.11540E+08
0.10781E+08
</weights>
</event>
<event>
      6  10001 -1.11453E+07  8.94427E-01 -1.00000E+00  6.60780E-01
      21    -1     0     0   502   501  0.000000000E+00  0.000000000E+00  5.035140889E+01  5.035140889E+01  0.000000000E+00  0.00000E+00  9.000E+00
      -4    -1     0     0     0   502  0.000000000E+00  0.000000000E+00 -1.812112269E-02  1.812112269E-02  0.000000000E+00  0.00000E+00  9.000E+00
      23     2     1     2     0     0 -2.160772914E-01 -3.674886673E-01  4.342225153E+01  4.344535792E+01  1.351095635E+00  0.00000E+00  9.000E+00
      11     1     3     3     0     0 -6.924659449E-01  1.537207595E-01  2.082540150E+01  2.083747795E+01  5.110000000E-04  0.00000E+00  9.000E+00
     -11     1     3     3     0     0  4.763886535E-01 -5.212094267E-01  2.259685003E+01  2.260787997E+01  5.110000000E-04  0.00000E+00  9.000E+00
      -4     1     1     2     0   501  2.160772914E-01  3.674886673E-01  6.911036231E+00  6.924172088E+00  0.000000000E+00  0.00000E+00  9.000E+00
#rwgt            1          12  -319687.30014688353                3    13670739           0
<weights>
-.11145E+08
-.12739E+08
-.93148E+07
-.15492E+08
-.74638E+07
-.91644E+07
-.13909E+08
-.11172E+08
-.11119E+08
-.10815E+08
-.10801E+08
-.10958E+08
-.11000E+08
-.10831E+08
-.10812E+08
-.11228E+08
-.11217E+08
-.11475E+08
-.11516E+08
-.11504E+08
-.11451E+08
-.11517E+08
-.11534E+08
-.11421E+08
-.11333E+08
-.11293E+08
-.11343E+08
-.11449E+08
-.11382E+08
-.11495E+08
-.11529E+08
-.11188E+08
-.11217E+08
-.11136E+08
-.11180E+08
-.11208E+08
-.11102E+08
-.11148E+08
-.11068E+08
-.11170E+08
-.11124E+08
-.11187E+08
-.11102E+08
-.11518E+08
-.10803E+08
</weights>
</event>
<event>
      6  10001 -1.11453E+07  8.94427E-01 -1.00000E+00  3.71806E-01
       2    -1     0     0   501     0  0.000000000E+00  0.000000000E+00  1.854601000E+02  1.854601000E+02  0.000000000E+00  0.00000E+00  9.000E+00
      21    -1     0     0   502   501  0.000000000E+00  0.000000000E+00 -1.595253539E-02  1.595253539E-02  0.000000000E+00  0.00000E+00  9.000E+00
      23     2     1     2     0     0 -3.913368631E-01  4.877965412E-02  1.826900709E+02  1.826938840E+02  1.112530603E+00  0.00000E+00  9.000E+00
      11     1     3     3     0     0  3.789951210E-01  7.016583652E-02  4.472100244E+01  4.472266338E+01  5.110000000E-04  0.00000E+00  9.000E+00
     -11     1     3     3     0     0 -7.703319841E-01 -2.138618241E-02  1.379690685E+02  1.379712206E+02  5.110000000E-04  0.00000E+00  9.000E+00
       2     1     1     2   502     0  3.913368631E-01 -4.877965412E-02  2.754076596E+00  2.782168559E+00  0.000000000E+00  0.00000E+00  9.000E+00
#rwgt            1          24  -37685980.541500434                3    13671005           0
<weights>
-.11147E+08
-.11994E+08
-.10108E+08
-.14611E+08
-.81000E+07
-.91498E+07
-.13909E+08
-.11178E+08
-.11116E+08
-.10833E+08
-.10827E+08
-.10966E+08
-.11015E+08
-.10852E+08
-.10837E+08
-.11226E+08
-.11205E+08
-.11452E+08
-.11489E+08
-.11478E+08
-.11429E+08
-.11488E+08
-.11509E+08
-.11391E+08
-.11330E+08
-.11286E+08
-.11316E+08
-.11423E+08
-.11361E+08
-.11464E+08
-.11500E+08
-.11181E+08
-.11218E+08
-.11140E+08
-.11177E+08
-.11214E+08
-.11098E+08
-.11118E+08
-.11100E+08
-.11164E+08
-.11132E+08
-.11184E+08
-.11107E+08
-.11494E+08
-.10826E+08
</weights>
</event>
<event>
      7  10001  1.11453E+07  8.94427E-01 -1.00000E+00  6.68419E-01
       2    -1     0     0   501     0  0.000000000E+00  0.000000000E+00  1.156778544E+02  1.156778544E+02  0.000000000E+00  0.00000E+00  9.000E+00
      -2    -1     0     0     0   501  0.000000000E+00  0.000000000E+00 -3.352931780E+00  3.352931780E+00  0.000000000E+00  0.00000E+00  9.000E+00
      23     2     1     2     0     0 -1.425599235E-01 -4.485798693E-02  1.102012262E+02  1.102141825E+02  1.683279014E+00  0.00000E+00  9.000E+00
      11     1     3     3     0     0 -9.209657579E-02 -4.837307478E-01  1.011295134E+01  1.012493270E+01  5.110000000E-04  0.00000E+00  9.000E+00
     -11     1     3     3     0     0 -5.046334771E-02  4.388727608E-01  1.000882749E+02  1.000892498E+02  5.110000000E-04  0.00000E+00  9.000E+00
       2     1     1     2   502     0  3.502429267E-01  1.572844388E-01  5.459233070E+00  5.472717261E+00  0.000000000E+00  0.00000E+00  9.000E+00
      -2     1     1     2     0   502 -2.076830032E-01 -1.124264519E-01 -3.335536638E+00  3.343886452E+00  0.000000000E+00  0.00000E+00  9.000E+00
#rwgt            2         242   44230968.068237610                3    13672374           0
<weights>
0.11145E+08
0.10331E+08
0.12004E+08
0.12556E+08
0.96183E+07
0.91702E+07
0.13910E+08
0.11122E+08
0.11166E+08
0.10857E+08
0.10851E+08
0.10983E+08
0.11008E+08
0.10875E+08
0.10861E+08
0.11176E+08
0.11260E+08
0.11444E+08
0.11420E+08
0.11409E+08
0.11427E+08
0.11456E+08
0.11475E+08
0.11336E+08
0.11322E+08
0.11363E+08
0.11062E+08
0.11430E+08
0.11270E+08
0.11434E+08
0.11458E+08
0.11143E+08
0.11243E+08
0.11157E+08
0.11156E+08
0.11087E+08
0.11224E+08
0.11079E+08
0.11126E+08
0.11153E+08
0.11136E+08
0.11206E+08
0.11082E+08
0.11462E+08
0.10853E+08
</weights>
</event>
<event>
      7  10001  1.11453E+07  1.38817E+00 -1.00000E+00  4.50337E-01
      21    -1     0     0   502   501  0.000000000E+00  0.000000000E+00  4.155652658E+01  4.155652658E+01  0.000000000E+00  0.00000E+00  9.000E+00
       4    -1     0     0   501     0  0.000000000E+00  0.000000000E+00 -5.066781526E-02  5.066781526E-02  0.000000000E+00  0.00000E+00  9.000E+00
      23     2     1     2     0     0 -5.635905270E-02  6.405795195E-01  1.235933609E+01  1.242412566E+01  1.091875208E+00  0.00000E+00  9.000E+00
      11     1     3     3     0     0 -5.243986049E-01  3.504871482E-01  4.301654859E+00  4.347651082E+00  5.110000000E-04  0.00000E+00  9.000E+00
     -11     1     3     3     0     0  4.680395522E-01  2.900923713E-01  8.057681229E+00  8.076474581E+00  5.110000000E-04  0.00000E+00  9.000E+00
       4     1     1     2   511     0 -6.220290570E-01 -2.376078896E-01  1.456532043E+01  1.458053280E+01  0.000000000E+00  0.00000E+00  9.000E+00
      21     1     1     2   502   511  6.783881097E-01 -4.029716299E-01  1.458120225E+01  1.460253593E+01  1.685873940E-07  0.00000E+00  9.000E+00
#rwgt            1          19   648313.12657895114                3    13674373           0
<weights>
0.11145E+08
0.14584E+08
0.96117E+07
0.12604E+08
0.94278E+07
0.12558E+08
0.11091E+08
0.11153E+08
0.11138E+08
0.10759E+08
0.10717E+08
0.10935E+08
0.10955E+08
0.10764E+08
0.10732E+08
0.11237E+08
0.11260E+08
0.11557E+08
0.11611E+08
0.11595E+08
0.11527E+08
0.11616E+08
0.11620E+08
0.11527E+08
0.11345E+08
0.11320E+08
0.11452E+08
0.11538E+08
0.11452E+08
0.11604E+08
0.11628E+08
0.11216E+08
0.11219E+08
0.11128E+08
0.11198E+08
0.11192E+08
0.11122E+08
0.11253E+08
0.10962E+08
0.11197E+08
0.11101E+08
0.11199E+08
0.11089E+08
0.11603E+08
0.10729E+08
</weights>
</event>
<event>
      7  10001  1.11453E+07  8.02894E+00 -1.00000E+00  2.06768E-01
      21    -1     0     0   502   501  0.000000000E+00  0.000000000E+00  5.937426449E-01  5.937426449E-01  0.000000000E+00  0.00000E+00  9.000E+00
      -2    -1     0     0     0   502  0.000000000E+00  0.000000000E+00 -2.002859317E+02  2.002859317E+02  0.000000000E+00  0.00000E+00  9.000E+00
      23     2     1     2     0     0  2.722048849E-01 -8.646643856E-01 -1.982532150E+02  1.982583607E+02  1.103888408E+00  0.00000E+00  9.000E+00
      11     1     3     3     0     0  3.285832134E-01  1.482549813E-01 -3.156088514E+01  3.156294374E+01  5.110000000E-04  0.00000E+00  9.000E+00
     -11     1     3     3     0     0 -5.637832850E-02 -1.012919367E+00 -1.666923299E+02  1.666954169E+02  5.110000000E-04  0.00000E+00  9.000E+00
      -2     1     1     2     0   512  4.079117161E-01  1.605212587E-01 -1.573251560E+00  1.633180796E+00  0.000000000E+00  0.00000E+00  9.000E+00
      21     1     1     2   512   501 -6.801166009E-01  7.041431270E-01  1.342775244E-01  9.881328796E-01  3.349069647E-06  0.00000E+00  9.000E+00
#rwgt            2         160   3028714.1889980077                3    13680572           0
<weights>
0.11145E+08
0.10297E+08
0.11979E+08
0.12515E+08
0.95984E+07
0.91702E+07
0.13910E+08
0.11056E+08
0.11229E+08
0.11323E+08
0.11294E+08
0.11135E+08
0.11241E+08
0.11308E+08
0.11307E+08
0.11034E+08
0.11195E+08
0.11054E+08
0.10900E+08
0.10878E+08
0.11075E+08
0.10971E+08
0.10970E+08
0.11116E+08
0.10976E+08
0.11005E+08
0.11178E+08
0.10993E+08
0.10966E+08
0.11001E+08
0.10991E+08
0.11237E+08
0.10996E+08
0.11308E+08
0.10985E+08
0.11162E+08
0.11108E+08
0.11328E+08
0.10959E+08
0.11119E+08
0.11152E+08
0.11305E+08
0.10974E+08
0.10960E+08
0.11317E+08
</weights>
</event>
<event>
      6  10001 -1.11453E+07  8.94427E-01 -1.00000E+00  4.27657E-01
      21    -1     0     0   502   501  0.000000000E+00  0.000000000E+00  3.474700171E-01  3.474700171E-01  0.000000000E+00  0.00000E+00  9.000E+00
       4    -1     0     0   501     0  0.000000000E+00  0.000000000E+00 -2.432761257E+00  2.432761257E+00  0.000000000E+00  0.00000E+00  9.000E+00
      23     2     1     2     0     0  3.749618769E-01  6.397506015E-02 -1.416055328E+00  2.010448238E+00  1.375499984E+00  0.00000E+00  9.000E+00
      11     1     3     3     0     0  5.113570098E-01  1.507116598E-01  5.005991654E-02  5.354495796E-01  5.110000000E-04  0.00000E+00  9.000E+00
     -11     1     3     3     0     0 -1.363951329E-01 -8.673659966E-02 -1.466115245E+00  1.474998658E+00  5.110000000E-04  0.00000E+00  9.000E+00
       4     1     1     2   502     0 -3.749618769E-01 -6.397506015E-02 -6.692359117E-01  7.697830362E-01  0.000000000E+00  0.00000E+00  9.000E+00
#rwgt            1          19  -685135.88335214101                3    13681222           0
<weights>
-.11145E+08
-.96435E+07
-.11807E+08
-.17118E+08
-.66002E+07
-.58477E+07
-.19010E+08
-.11210E+08
-.11079E+08
-.10941E+08
-.10987E+08
-.11006E+08
-.11105E+08
-.10980E+08
-.10990E+08
-.11203E+08
-.11128E+08
-.11293E+08
-.11303E+08
-.11299E+08
-.11283E+08
-.11296E+08
-.11338E+08
-.11189E+08
-.11305E+08
-.11244E+08
-.11096E+08
-.11259E+08
-.11219E+08
-.11257E+08
-.11308E+08
-.11127E+08
-.11212E+08
-.11152E+08
-.11144E+08
-.11248E+08
-.11054E+08
-.10931E+08
-.11303E+08
-.11111E+08
-.11176E+08
-.11155E+08
-.11136E+08
-.11330E+08
-.10968E+08
</weights>
</event>
<event>
      7  10001  1.11453E+07  8.94427E-01 -1.00000E+00  6.07649E-01
      21    -1     0     0   501   511  0.000000000E+00  0.000000000E+00  1.069224261E+00  1.069224261E+00  0.000000000E+00  0.00000E+00  9.000E+00
      -2    -1     0     0     0   502  0.000000000E+00  0.000000000E+00 -3.802996125E+01  3.802996125E+01  0.000000000E+00  0.00000E+00  9.000E+00
      23     2     1     2     0     0  2.207677513E-01  7.409730581E-02 -3.515858121E+01  3.517583535E+01  1.076722506E+00  0.00000E+00  9.000E+00
      11     1     3     3     0     0  4.942736294E-01  3.817018572E-01 -1.491287175E+01  1.492594208E+01  5.110000000E-04  0.00000E+00  9.000E+00
     -11     1     3     3     0     0 -2.735058781E-01 -3.076045514E-01 -2.024570945E+01  2.024989327E+01  5.110000000E-04  0.00000E+00  9.000E+00
      21     1     1     2   501   502 -4.038773207E-01 -8.016131354E-02  1.017547999E+00  1.097700623E+00  6.160147968E-07  0.00000E+00  9.000E+00
      -2     1     1     2     0   511  1.831095694E-01  6.064007733E-03 -2.819703782E+00  2.825649537E+00  0.000000000E+00  0.00000E+00  9.000E+00
#rwgt            2         161   2326563.1256613890                3    13689078           0
<weights>
0.11145E+08
0.10821E+08
0.11297E+08
0.13151E+08
0.90515E+07
0.91702E+07
0.13910E+08
0.11225E+08
0.11066E+08
0.10977E+08
0.11043E+08
0.11033E+08
0.11081E+08
0.11032E+08
0.11043E+08
0.11100E+08
0.11225E+08
0.11265E+08
0.11204E+08
0.11181E+08
0.11272E+08
0.11234E+08
0.11264E+08
0.11196E+08
0.11235E+08
0.11282E+08
0.11057E+08
0.11234E+08
0.11084E+08
0.11195E+08
0.11238E+08
0.11083E+08
0.11237E+08
0.11245E+08
0.11051E+08
0.11058E+08
0.11231E+08
0.10899E+08
0.11388E+08
0.11103E+08
0.11174E+08
0.11238E+08
0.11046E+08
0.11270E+08
0.11020E+08
</weights>
</event>
<event>
      7  10001  1.11453E+07  3.05832E+00 -1.00000E+00  2.89882E-01
      21    -1     0     0   502   501  0.000000000E+00  0.000000000E+00  7.281116690E+01  7.281116690E+01  0.000000000E+00  0.00000E+00  9.000E+00
      21    -1     0     0   511   502  0.000000000E+00  0.000000000E+00 -8.452489417E-01  8.452489417E-01  0.000000000E+00  0.00000E+00  9.000E+00
      23     2     1     2     0     0  8.562595272E-01  2.002558927E+00  2.665958964E+01  2.683563237E+01  2.161948638E+00  0.00000E+00  9.000E+00
      11     1     3     3     0     0 -2.414036211E-01 -3.652515278E-01  2.850316069E+00  2.883745193E+00  5.110000000E-04  0.00000E+00  9.000E+00
     -11     1     3     3     0     0  1.097663148E+00  2.367810455E+00  2.380927357E+01  2.395188717E+01  5.110000000E-04  0.00000E+00  9.000E+00
      -4     1     1     2     0   501 -3.899116274E+00 -1.695449097E+00  4.236422712E+01  4.257705244E+01  0.000000000E+00  0.00000E+00  9.000E+00
       4     1     1     2   511     0  3.042856747E+00 -3.071098303E-01  2.942101198E+00  4.243731034E+00  0.000000000E+00  0.00000E+00  9.000E+00
#rwgt            1          12   559537.53571523947                3    13690792           0
<weights>
0.11145E+08
0.12219E+08
0.99797E+07
0.12570E+08
0.95395E+07
0.10739E+08
0.11501E+08
0.11178E+08
0.11110E+08
0.10782E+08
0.10755E+08
0.10941E+08
0.10980E+08
0.10793E+08
0.10768E+08
0.11237E+08
0.11237E+08
0.11525E+08
0.11554E+08
0.11545E+08
0.11496E+08
0.11571E+08
0.11581E+08
0.11444E+08
0.11357E+08
0.11324E+08
0.11284E+08
0.11502E+08
0.11413E+08
0.11553E+08
0.11583E+08
0.11204E+08
0.11218E+08
0.11131E+08
0.11191E+08
0.11214E+08
0.11097E+08
0.11198E+08
0.11016E+08
0.11184E+08
0.11112E+08
0.11190E+08
0.11098E+08
0.11565E+08
0.10761E+08
</weights>
</event>
<event>
      6  10001 -1.11453E+07  8.94427E-01 -1.00000E+00  6.64954E-01
       2    -1     0     0   501     0  0.000000000E+00  0.000000000E+00  3.631531829E+02  3.631531829E+02  0.000000000E+00  0.00000E+00  9.000E+00
      21    -1     0     0   502   501  0.000000000E+00  0.000000000E+00 -9.207498672E-03  9.207498672E-03  0.000000000E+00  0.00000E+00  9.000E+00
      23     2     1     2     0     0 -7.933916970E-01  1.947862179E-01  3.060515011E+02  3.060640714E+02  2.650859609E+00  0.00000E+00  9.000E+00
      11     1     3     3     0     0 -1.172316550E+00 -7.145524245E-03  2.970696238E+02  2.970719370E+02  5.110000000E-04  0.00000E+00  9.000E+00
     -11     1     3     3     0     0  3.789248532E-01  2.019317422E-01  8.981877338E+00  8.992134410E+00  5.110000000E-04  0.00000E+00  9.000E+00
       2     1     1     2   502     0  7.933916970E-01 -1.947862179E-01  5.709247432E+01  5.709831903E+01  0.000000000E+00  0.00000E+00  9.000E+00
#rwgt            1          24  -12357191.745743059                3    13703331           0
<weights>
-.11145E+08
-.11857E+08
-.10235E+08
-.14421E+08
-.82012E+07
-.91641E+07
-.13909E+08
-.11175E+08
-.11116E+08
-.10827E+08
-.10819E+08
-.10963E+08
-.11010E+08
-.10846E+08
-.10830E+08
-.11226E+08
-.11207E+08
-.11457E+08
-.11495E+08
-.11484E+08
-.11434E+08
-.11494E+08
-.11514E+08
-.11400E+08
-.11329E+08
-.11286E+08
-.11330E+08
-.11429E+08
-.11366E+08
-.11471E+08
-.11507E+08
-.11182E+08
-.11217E+08
-.11138E+08
-.11177E+08
-.11211E+08
-.11098E+08
-.11125E+08
-.11092E+08
-.11164E+08
-.11129E+08
-.11184E+08
-.11105E+08
-.11500E+08
-.10819E+08
</weights>
</event>
<event>
      6  10001 -1.11453E+07  8.94427E-01 -1.00000E+00  5.52816E-01
      21    -1     0     0   502   501  0.000000000E+00  0.000000000E+00  1.768113239E-03  1.768113239E-03  0.000000000E+00  0.00000E+00  9.000E+00
       2    -1     0     0   501     0  0.000000000E+00  0.000000000E+00 -5.324374702E+02  5.324374702E+02  0.000000000E+00  0.00000E+00  9.000E+00
      23     2     1     2     0     0  3.675266571E-01 -1.251713225E-01 -4.948535309E+02  4.948550616E+02  1.168015898E+00  0.00000E+00  9.000E+00
      11     1     3     3     0     0  5.957541857E-01 -4.474740065E-01 -4.020565320E+02  4.020572224E+02  5.110000000E-04  0.00000E+00  9.000E+00
     -11     1     3     3     0     0 -2.282275286E-01  3.223026840E-01 -9.279699885E+01  9.279783921E+01  5.110000000E-04  0.00000E+00  9.000E+00
       2     1     1     2   502     0 -3.675266571E-01  1.251713225E-01 -3.758217122E+01  3.758417669E+01  0.000000000E+00  0.00000E+00  9.000E+00
#rwgt            1          17  -30396391.915194359                3    13705862           0
<weights>
-.11145E+08
-.10486E+08
-.11745E+08
-.12744E+08
-.94106E+07
-.91702E+07
-.13910E+08
-.11131E+08
-.11159E+08
-.11164E+08
-.11148E+08
-.10970E+08
-.11343E+08
-.11156E+08
-.11151E+08
-.11242E+08
-.10995E+08
-.11499E+08
-.10649E+08
-.10578E+08
-.11542E+08
-.11110E+08
-.11172E+08
-.11021E+08
-.11233E+08
-.11387E+08
-.10995E+08
-.10707E+08
-.11635E+08
-.11063E+08
-.11194E+08
-.11036E+08
-.11253E+08
-.11563E+08
-.10637E+08
-.11088E+08
-.11197E+08
-.11141E+08
-.11157E+08
-.11268E+08
-.11036E+08
-.11130E+08
-.11161E+08
-.11134E+08
-.11157E+08
</weights>
</event>
<event>
      6  10001 -1.11453E+07  8.94427E-01 -1.00000E+00  4.77334E-01
      21    -1     0     0   502   501  0.000000000E+00  0.000000000E+00  2.128633121E-02  2.128633121E-02  0.000000000E+00  0.00000E+00  9.000E+00
      -1    -1     0     0     0   502  0.000000000E+00  0.000000000E+00 -6.342259023E+01  6.342259023E+01  0.000000000E+00  0.00000E+00  9.000E+00
      23     2     1     2     0     0  4.948130113E-01 -3.162255763E-01 -5.653139614E+01  5.654891673E+01  1.279216432E+00  0.00000E+00  9.000E+00
      11     1     3     3     0     0  6.807580702E-01  2.612007726E-01 -2.172011315E+01  2.173234853E+01  5.110000000E-04  0.00000E+00  9.000E+00
     -11     1     3     3     0     0 -1.859450589E-01 -5.774263489E-01 -3.481128300E+01  3.481656820E+01  5.110000000E-04  0.00000E+00  9.000E+00
      -1     1     1     2     0   501 -4.948130113E-01  3.162255763E-01 -6.869907757E+00  6.894959834E+00  0.000000000E+00  0.00000E+00  9.000E+00
#rwgt            1          15  -1638170.6097409879                3    13706956           0
<weights>
-.11145E+08
-.12650E+08
-.94963E+07
-.15375E+08
-.76089E+07
-.91702E+07
-.13910E+08
-.11208E+08
-.11083E+08
-.11068E+08
-.11129E+08
-.11069E+08
-.11114E+08
-.11124E+08
-.11129E+08
-.11069E+08
-.11215E+08
-.11196E+08
-.11083E+08
-.11056E+08
-.11212E+08
-.11144E+08
-.11151E+08
-.11167E+08
-.11146E+08
-.11202E+08
-.11088E+08
-.11149E+08
-.11025E+08
-.11117E+08
-.11149E+08
-.11100E+08
-.11190E+08
-.11282E+08
-.11011E+08
-.11040E+08
-.11237E+08
-.10966E+08
-.11350E+08
-.11101E+08
-.11172E+08
-.11271E+08
-.11011E+08
-.11171E+08
-.11110E+08
</weights>
</event>
<event>
      6  10001 -1.11453E+07  8.94427E-01 -1.00000E+00  2.64756E-01
       2    -1     0     0   501     0  0.000000000E+00  0.000000000E+00  7.584422194E+02  7.584422194E+02  0.000000000E+00  0.00000E+00  9.000E+00
      21    -1     0     0   502   501  0.000000000E+00  0.000000000E+00 -6.094023278E-03  6.094023278E-03  0.000000000E+00  0.00000E+00  9.000E+00
      23     2     1     2     0     0 -1.625091421E+00 -8.972277699E-02  6.049806083E+02  6.049841656E+02  1.286518972E+00  0.00000E+00  9.000E+00
      11     1     3     3     0     0 -1.996990224E-02 -3.688206415E-01  6.105361794E+01  6.105473521E+01  5.110000000E-04  0.00000E+00  9.000E+00
     -11     1     3     3     0     0 -1.605121519E+00  2.790978645E-01  5.439269904E+02  5.439294304E+02  5.110000000E-04  0.00000E+00  9.000E+00
       2     1     1     2   502     0  1.625091421E+00  8.972277699E-02  1.534555170E+02  1.534641479E+02  0.000000000E+00  0.00000E+00  9.000E+00
#rwgt            1          24  -39351765.937917270                3    13709982           0
<weights>
-.11145E+08
-.12716E+08
-.90663E+07
-.15464E+08
-.72646E+07
-.91647E+07
-.13909E+08
-.11183E+08
-.11108E+08
-.10862E+08
-.10870E+08
-.10978E+08
-.11036E+08
-.10888E+08
-.10878E+08
-.11220E+08
-.11180E+08
-.11407E+08
-.11435E+08
-.11426E+08
-.11388E+08
-.11435E+08
-.11458E+08
-.11343E+08
-.11316E+08
-.11264E+08
-.11280E+08
-.11375E+08
-.11325E+08
-.11408E+08
-.11447E+08
-.11166E+08
-.11215E+08
-.11143E+08
-.11167E+08
-.11218E+08
-.11089E+08
-.11073E+08
-.11160E+08
-.11148E+08
-.11143E+08
-.11177E+08
-.11112E+08
-.11448E+08
-.10864E+08
</weights>
</event>
<event>
      7  10001 -1.11453E+07  1.40911E+00 -1.00000E+00  4.45759E-01
      21    -1     0     0   511   501  0.000000000E+00  0.000000000E+00  3.109369849E+01  3.109369849E+01  0.000000000E+00  0.00000E+00  9.000E+00
       2    -1     0     0   501     0  0.000000000E+00  0.000000000E+00 -3.159639823E+00  3.159639823E+00  0.000000000E+00  0.00000E+00  9.000E+00
      23     2     1     2     0     0  1.263044704E-01  1.144935207E+00 -2.053168434E+00  2.650909129E+00  1.218601307E+00  0.00000E+00  9.000E+00
      11     1     3     3     0     0  1.891672638E-01  4.244871905E-01  9.821750860E-03  4.648336869E-01  5.110000000E-04  0.00000E+00  9.000E+00
     -11     1     3     3     0     0 -6.286279341E-02  7.204480161E-01 -2.062990185E+00  2.186075442E+00  5.110000000E-04  0.00000E+00  9.000E+00
       2     1     1     2   502     0  7.137535675E-01 -1.361686222E-02 -6.304064011E-01  9.523874236E-01  0.000000000E+00  0.00000E+00  9.000E+00
      21     1     1     2   511   502 -8.400580380E-01 -1.131318344E+00  3.061763350E+01  3.065004176E+01  3.371747881E-07  0.00000E+00  9.000E+00
#rwgt            1          17  -145455.80725537654                3    13710809           0
<weights>
-.11145E+08
0.20151E+07
-.21117E+08
-.29746E+08
0.82901E+06
0.10982E+08
-.44846E+08
-.12137E+08
-.10116E+08
-.11204E+08
-.11525E+08
-.10949E+08
-.11645E+08
-.11348E+08
-.11489E+08
-.11546E+08
-.10264E+08
-.10809E+08
-.10741E+08
-.10777E+08
-.10811E+08
-.10653E+08
-.10882E+08
-.10483E+08
-.11374E+08
-.10784E+08
-.11212E+08
-.10400E+08
-.11275E+08
-.10504E+08
-.10783E+08
-.11103E+08
-.11050E+08
-.11217E+08
-.10964E+08
-.12477E+08
-.97379E+07
-.10253E+08
-.12065E+08
-.10989E+08
-.11304E+08
-.10856E+08
-.11455E+08
-.10848E+08
-.11381E+08
</weights>
</event>
<event>
      6  10001 -1.11453E+07  8.94427E-01 -1.00000E+00  5.41932E-01
       2    -1     0     0   501     0  0.000000000E+00  0.000000000E+00  5.090460907E+02  5.090460907E+02  0.000000000E+00  0.00000E+00  9.000E+00
      21    -1     0     0   502   501  0.000000000E+00  0.000000000E+00 -3.369116628E-03  3.369116628E-03  0.000000000E+00  0.00000E+00  9.000E+00
      23     2     1     2     0     0 -4.878872622E-01  5.972732107E-02  4.675284813E+02  4.675323098E+02  1.827089174E+00  0.00000E+00  9.000E+00
      11     1     3     3     0     0 -1.047276166E+00  2.719995411E-01  1.829603404E+02  1.829635399E+02  5.110000000E-04  0.00000E+00  9.000E+00
     -11     1     3     3     0     0  5.593889039E-01 -2.122722200E-01  2.845681410E+02  2.845687699E+02  5.110000000E-04  0.00000E+00  9.000E+00
       2     1     1     2   502     0  4.878872622E-01 -5.972732107E-02  4.151424023E+01  4.151714999E+01  0.000000000E+00  0.00000E+00  9.000E+00
#rwgt            1          24  -63573036.255975075                3    13716135           0
<weights>
-.11145E+08
-.11637E+08
-.10504E+08
-.14154E+08
-.84169E+07
-.91640E+07
-.13909E+08
-.11178E+08
-.11113E+08
-.10835E+08
-.10831E+08
-.10966E+08
-.11016E+08
-.10855E+08
-.10841E+08
-.11224E+08
-.11201E+08
-.11446E+08
-.11481E+08
-.11471E+08
-.11423E+08
-.11481E+08
-.11502E+08
-.11383E+08
-.11328E+08
-.11284E+08
-.11306E+08
-.11417E+08
-.11356E+08
-.11456E+08
-.11493E+08
-.11178E+08
-.11216E+08
-.11139E+08
-.11174E+08
-.11214E+08
-.11095E+08
-.11111E+08
-.11105E+08
-.11161E+08
-.11132E+08
-.11182E+08
-.11107E+08
-.11488E+08
-.10829E+08
</weights>
</event>
<event>
      6  10001  1.11453E+07  8.94427E-01 -1.00000E+00  6.06030E-01
      -2    -1     0     0     0   502  0.000000000E+00  0.000000000E+00  3.775526696E+00  3.775526696E+00  0.000000000E+00  0.00000E+00  9.000E+00
       2    -1     0     0   501     0  0.000000000E+00  0.000000000E+00 -8.335782287E-01  8.335782287E-01  0.000000000E+00  0.00000E+00  9.000E+00
      23     2     1     2     0     0 -8.403209235E-01 -2.217150663E-01  2.756348548E+00  3.720429419E+00  2.342827547E+00  0.00000E+00  9.000E+00
      11     1     3     3     0     0  7.526321971E-01 -7.015561966E-02  3.557903335E-01  8.354424323E-01  5.110000000E-04  0.00000E+00  9.000E+00
     -11     1     3     3     0     0 -1.592953121E+00 -1.515594467E-01  2.400558214E+00  2.884986986E+00  5.110000000E-04  0.00000E+00  9.000E+00
      21     1     1     2   501   502  8.403209235E-01  2.217150663E-01  1.855999195E-01  8.886755062E-01  2.553930357E-08  0.00000E+00  9.000E+00
#rwgt            1           8   339296.01236578071                3    13717474           0
<weights>
0.11145E+08
0.13363E+08
0.91674E+07
0.11187E+08
0.10336E+08
0.12429E+08
0.89072E+07
0.10893E+08
0.11431E+08
0.10802E+08
0.10741E+08
0.10986E+08
0.10917E+08
0.10802E+08
0.10758E+08
0.11146E+08
0.11377E+08
0.11538E+08
0.11541E+08
0.11523E+08
0.11516E+08
0.11590E+08
0.11566E+08
0.11501E+08
0.11292E+08
0.11394E+08
0.11146E+08
0.11578E+08
0.11315E+08
0.11589E+08
0.11573E+08
0.11165E+08
0.11260E+08
0.11129E+08
0.11205E+08
0.10922E+08
0.11412E+08
0.11241E+08
0.10976E+08
0.11180E+08
0.11111E+08
0.11243E+08
0.11042E+08
0.11563E+08
0.10766E+08
</weights>
</event>
<event>
      6  10001  1.11453E+07  8.94427E-01 -1.00000E+00  6.04492E-01
       4    -1     0     0   501     0  0.000000000E+00  0.000000000E+00  6.980885694E+00  6.980885694E+00  0.000000000E+00  0.00000E+00  9.000E+00
      -4    -1     0     0     0   502  0.000000000E+00  0.000000000E+00 -8.944338060E-01  8.944338060E-01  0.000000000E+00  0.00000E+00  9.000E+00
      23     2     1     2     0     0 -9.905545039E-01 -5.593946691E-01  6.183557120E+00  6.733588338E+00  2.410541979E+00  0.00000E+00  9.000E+00
      11     1     3     3     0     0 -1.184561327E+00  2.275388352E-01  1.261993935E+00  1.745734348E+00  5.110000000E-04  0.00000E+00  9.000E+00
     -11     1     3     3     0     0  1.940068235E-01 -7.869335043E-01  4.921563184E+00  4.987853990E+00  5.110000000E-04  0.00000E+00  9.000E+00
      21     1     1     2   501   502  9.905545039E-01  5.593946691E-01 -9.710523133E-02  1.141731162E+00  3.000535759E-08  0.00000E+00  9.000E+00
#rwgt            1          27   126462.41315632852                3    13719237           0
<weights>
0.11145E+08
0.13389E+08
0.90965E+07
0.10659E+08
0.10426E+08
0.12710E+08
0.84755E+07
0.11193E+08
0.11093E+08
0.10736E+08
0.10693E+08
0.10914E+08
0.10958E+08
0.10741E+08
0.10709E+08
0.11248E+08
0.11266E+08
0.11596E+08
0.11601E+08
0.11597E+08
0.11560E+08
0.11644E+08
0.11647E+08
0.11456E+08
0.11406E+08
0.11388E+08
0.11171E+08
0.11579E+08
0.11445E+08
0.11630E+08
0.11655E+08
0.11223E+08
0.11219E+08
0.11121E+08
0.11207E+08
0.11235E+08
0.11076E+08
0.11249E+08
0.10951E+08
0.11202E+08
0.11097E+08
0.11192E+08
0.11097E+08
0.11630E+08
0.10704E+08
</weights>
</event>
<event>
      6  10001 -1.11453E+07  8.94427E-01 -1.00000E+00  1.77367E-01
       3    -1     0     0   501     0  0.000000000E+00  0.000000000E+00  5.970544748E+01  5.970544748E+01  0.000000000E+00  0.00000E+00  9.000E+00
      -3    -1     0     0     0   502  0.000000000E+00  0.000000000E+00 -1.319150957E-02  1.319150957E-02  0.000000000E+00  0.00000E+00  9.000E+00
      23     2     1     2     0     0 -4.901522489E-01  6.069236215E-02  5.034281940E+01  5.035616619E+01  1.048844672E+00  0.00000E+00  9.000E+00
      11     1     3     3     0     0 -9.800230653E-02  2.847885673E-01  4.064749936E+00  4.075892698E+00  5.110000000E-04  0.00000E+00  9.000E+00
     -11     1     3     3     0     0 -3.921499424E-01 -2.240962052E-01  4.627806947E+01  4.628027349E+01  5.110000000E-04  0.00000E+00  9.000E+00
      21     1     1     2   501   502  4.901522489E-01 -6.069236215E-02  9.349436566E+00  9.362472798E+00  2.384185791E-07  0.00000E+00  9.000E+00
#rwgt            1          25  -55717.231729827581                3    13721132           0
<weights>
-.11145E+08
-.13123E+08
-.90148E+07
-.15959E+08
-.72234E+07
-.91644E+07
-.13909E+08
-.11173E+08
-.11117E+08
-.10818E+08
-.10806E+08
-.10962E+08
-.11000E+08
-.10835E+08
-.10817E+08
-.11224E+08
-.11217E+08
-.11457E+08
-.11550E+08
-.11527E+08
-.11435E+08
-.11509E+08
-.11530E+08
-.11494E+08
-.11311E+08
-.11264E+08
-.11702E+08
-.11434E+08
-.11394E+08
-.11488E+08
-.11524E+08
-.11188E+08
-.11215E+08
-.11137E+08
-.11179E+08
-.11209E+08
-.11100E+08
-.11142E+08
-.11074E+08
-.11169E+08
-.11125E+08
-.11187E+08
-.11102E+08
-.11513E+08
-.10807E+08
</weights>
</event>
<event>
      7  10001 -1.11453E+07  9.33518E-01 -1.00000E+00  5.89908E-01
       4    -1     0     0   501     0  0.000000000E+00  0.000000000E+00  1.469997830E+01  1.469997830E+01  0.000000000E+00  0.00000E+00  9.000E+00
      21    -1     0     0   502   501  0.000000000E+00  0.000000000E+00 -9.521736051E-02  9.521736051E-02  0.000000000E+00  0.00000E+00  9.000E+00
      23     2     1     2     0     0  4.078975735E-01  4.668767440E-02  1.167765133E+01  1.182245367E+01  1.798418770E+00  0.00000E+00  9.000E+00
      11     1     3     3     0     0  1.941430667E-01  5.362031655E-01  1.064108647E+01  1.065635618E+01  5.110000000E-04  0.00000E+00  9.000E+00
     -11     1     3     3     0     0  2.137545069E-01 -4.895154911E-01  1.036564853E+00  1.166097492E+00  5.110000000E-04  0.00000E+00  9.000E+00
       4     1     1     2   511     0  5.268057934E-02  9.693201377E-03  3.726872219E-01  3.765168880E-01  0.000000000E+00  0.00000E+00  9.000E+00
      21     1     1     2   502   511 -4.605781529E-01 -5.638087578E-02  2.554422391E+00  2.596225104E+00  5.161913656E-08  0.00000E+00  9.000E+00
#rwgt            1          28  -693730.16552139469                3    13721688           0
<weights>
-.11145E+08
-.10376E+08
-.11252E+08
-.17179E+08
-.65483E+07
-.63277E+07
-.18273E+08
-.11205E+08
-.11080E+08
-.11076E+08
-.11117E+08
-.11060E+08
-.11182E+08
-.11115E+08
-.11123E+08
-.11191E+08
-.11066E+08
-.11173E+08
-.11121E+08
-.11124E+08
-.11171E+08
-.11153E+08
-.11168E+08
-.11062E+08
-.11221E+08
-.11175E+08
-.10928E+08
-.11133E+08
-.11128E+08
-.11122E+08
-.11158E+08
-.11118E+08
-.11174E+08
-.11143E+08
-.11143E+08
-.11231E+08
-.11061E+08
-.10943E+08
-.11313E+08
-.11084E+08
-.11200E+08
-.11138E+08
-.11153E+08
-.11181E+08
-.11103E+08
</weights>
</event>
<event>
      7  10001  1.11453E+07  1.02913E+00 -1.00000E+00  5.51593E-01
      -2    -1     0     0     0   502  0.000000000E+00  0.000000000E+00  1.020848990E-01  1.020848990E-01  0.000000000E+00  0.00000E+00  9.000E+00
       2    -1     0     0   512     0  0.000000000E+00  0.000000000E+00 -2.213157338E+02  2.213157338E+02  0.000000000E+00  0.00000E+00  9.000E+00
      23     2     1     2     0     0  2.931560718E-01  1.754639803E+00 -4.962189164E+01  4.980716145E+01  3.905957133E+00  0.00000E+00  9.000E+00
      11     1     3     3     0     0  5.347736591E-01  1.816841821E+00 -9.628786552E+00  9.813278137E+00  5.110000000E-04  0.00000E+00  9.000E+00
     -11     1     3     3     0     0 -2.416175873E-01 -6.220201830E-02 -3.999310508E+01  3.999388331E+01  5.110000000E-04  0.00000E+00  9.000E+00
      21     1     1     2   501   502  5.390390279E-01 -1.149196792E+00 -5.630226772E+01  5.631657453E+01  6.743495762E-07  0.00000E+00  9.000E+00
      21     1     1     2   512   501 -8.321950997E-01 -6.054430113E-01 -1.152894896E+02  1.152940827E+02  0.000000000E+00  0.00000E+00  9.000E+00
#rwgt            1           8   652097.81751955010                3    13761515           0
<weights>
0.11145E+08
0.12161E+08
0.10240E+08
0.10490E+08
0.11127E+08
0.12115E+08
0.93887E+07
0.11179E+08
0.11111E+08
0.11101E+08
0.11141E+08
0.11217E+08
0.11002E+08
0.11130E+08
0.11135E+08
0.11116E+08
0.11155E+08
0.10989E+08
0.11363E+08
0.11390E+08
0.10969E+08
0.11159E+08
0.11142E+08
0.11303E+08
0.11001E+08
0.11013E+08
0.11215E+08
0.11391E+08
0.10800E+08
0.11180E+08
0.11123E+08
0.11164E+08
0.11124E+08
0.10976E+08
0.11360E+08
0.11127E+08
0.11157E+08
0.11094E+08
0.11201E+08
0.11066E+08
0.11207E+08
0.11237E+08
0.11047E+08
0.11161E+08
0.11126E+08
</weights>
</event>
<event>
      7  10001  1.11453E+07  1.33780E+00 -1.00000E+00  4.61776E-01
      21    -1     0     0   502   501  0.000000000E+00  0.000000000E+00  1.966789923E+00  1.966789923E+00  0.000000000E+00  0.00000E+00  9.000E+00
      -4    -1     0     0     0   502  0.000000000E+00  0.000000000E+00 -3.346604089E+00  3.346604089E+00  0.000000000E+00  0.00000E+00  9.000E+00
      23     2     1     2     0     0 -9.123666913E-01 -1.788869237E+00 -1.569005204E+00  3.003780324E+00  1.590110934E+00  0.00000E+00  9.000E+00
      11     1     3     3     0     0 -8.337057944E-01 -7.323795235E-01 -1.596170558E+00  1.944017960E+00  5.110000000E-04  0.00000E+00  9.000E+00
     -11     1     3     3     0     0 -7.866089690E-02 -1.056489713E+00  2.716535434E-02  1.059762364E+00  5.110000000E-04  0.00000E+00  9.000E+00
      -4     1     1     2     0   511 -1.112356125E-01  8.161090835E-01  3.367290286E-01  8.898279813E-01  0.000000000E+00  0.00000E+00  9.000E+00
      21     1     1     2   511   501  1.023602304E+00  9.727601533E-01 -1.475379917E-01  1.419785706E+00  5.446445762E-08  0.00000E+00  9.000E+00
#rwgt            1          12   522525.70640638703                3    13763393           0
<weights>
0.11145E+08
0.13384E+08
0.89827E+07
0.12530E+08
0.94193E+07
0.11596E+08
0.10186E+08
0.11215E+08
0.11070E+08
0.10732E+08
0.10706E+08
0.10903E+08
0.10978E+08
0.10742E+08
0.10720E+08
0.11242E+08
0.11269E+08
0.11585E+08
0.11588E+08
0.11587E+08
0.11550E+08
0.11623E+08
0.11645E+08
0.11393E+08
0.11451E+08
0.11447E+08
0.11049E+08
0.11579E+08
0.11404E+08
0.11601E+08
0.11636E+08
0.11209E+08
0.11227E+08
0.11121E+08
0.11202E+08
0.11275E+08
0.11036E+08
0.11165E+08
0.10997E+08
0.11193E+08
0.11106E+08
0.11179E+08
0.11111E+08
0.11621E+08
0.10711E+08
</weights>
</event>
<event>
      7  10001  1.11453E+07  2.20217E+01 -1.00000E+00  1.62844E-01
      21    -1     0     0   502   501  0.000000000E+00  0.000000000E+00  3.618502964E-01  3.618502964E-01  0.000000000E+00  0.00000E+00  9.000E+00
       2    -1     0     0   501     0  0.000000000E+00  0.000000000E+00 -3.469653902E+02  3.469653902E+02  0.000000000E+00  0.00000E+00  9.000E+00
      23     2     1     2     0     0 -2.457883026E+00  3.787292582E-01 -1.679486731E+02  1.679729866E+02  1.408117644E+00  0.00000E+00  9.000E+00
      11     1     3     3     0     0 -1.084305093E+00  8.746521952E-01 -8.666152720E+01  8.667272369E+01  5.110000000E-04  0.00000E+00  9.000E+00
     -11     1     3     3     0     0 -1.373577932E+00 -4.959229370E-01 -8.128714589E+01  8.130026288E+01  5.110000000E-04  0.00000E+00  9.000E+00
       2     1     1     2   512     0 -1.071351744E+00 -6.824881681E-01 -1.699703446E+02  1.699750912E+02  0.000000000E+00  0.00000E+00  9.000E+00
      21     1     1     2   502   512  3.529234770E+00  3.037589098E-01 -8.684522141E+00  9.379162668E+00  1.576990671E-06  0.00000E+00  9.000E+00
#rwgt            2         189   252708610.59892944                3    13780902           0
<weights>
0.11145E+08
0.10345E+08
0.11926E+08
0.12574E+08
0.95558E+07
0.91702E+07
0.13910E+08
0.11128E+08
0.11162E+08
0.11168E+08
0.11158E+08
0.11028E+08
0.11282E+08
0.11161E+08
0.11159E+08
0.11330E+08
0.10868E+08
0.11386E+08
0.10780E+08
0.10732E+08
0.11412E+08
0.11105E+08
0.11163E+08
0.11100E+08
0.11145E+08
0.11250E+08
0.11074E+08
0.10856E+08
0.11436E+08
0.11081E+08
0.11171E+08
0.11024E+08
0.11262E+08
0.11399E+08
0.10824E+08
0.11116E+08
0.11170E+08
0.11160E+08
0.11133E+08
0.11218E+08
0.11078E+08
0.11145E+08
0.11146E+08
0.11127E+08
0.11164E+08
</weights>
</event>
<event>
      6  10001 -1.11453E+07  8.94427E-01 -1.00000E+00  1.94168E-01
      21    -1     0     0   502   501  0.000000000E+00  0.000000000E+00  1.071735879E-02  1.071735879E-02  0.000000000E+00  0.00000E+00  9.000E+00
       1    -1     0     0   501     0  0.000000000E+00  0.000000000E+00 -6.990326744E+01  6.990326744E+01  0.000000000E+00  0.00000E+00  9.000E+00
      23     2     1     2     0     0  2.791539039E-01  7.976815899E-02 -6.111111515E+01  6.112775186E+01  1.396195659E+00  0.00000E+00  9.000E+00
      11     1     3     3     0     0  7.013949661E-01  4.025452026E-01 -4.638462864E+01  4.639167783E+01  5.110000000E-04  0.00000E+00  9.000E+00
     -11     1     3     3     0     0 -4.222410622E-01 -3.227770436E-01 -1.472648651E+01  1.473607403E+01  5.110000000E-04  0.00000E+00  9.000E+00
       1     1     1     2   502     0 -2.791539039E-01 -7.976815899E-02 -8.781434926E+00  8.786232936E+00  0.000000000E+00  0.00000E+00  9.000E+00
#rwgt            1          16  -1224332.8693219358                3    13781419           0
<weights>
-.11145E+08
-.11964E+08
-.10166E+08
-.14540E+08
-.81453E+07
-.91702E+07
-.13910E+08
-.11216E+08
-.11075E+08
-.11118E+08
-.11130E+08
-.11060E+08
-.11156E+08
-.11142E+08
-.11147E+08
-.10715E+08
-.11592E+08
-.10976E+08
-.11254E+08
-.11247E+08
-.10959E+08
-.11156E+08
-.11106E+08
-.11222E+08
-.11049E+08
-.11127E+08
-.11128E+08
-.11156E+08
-.10971E+08
-.11134E+08
-.11124E+08
-.11102E+08
-.11184E+08
-.10981E+08
-.11256E+08
-.11069E+08
-.11211E+08
-.11027E+08
-.11285E+08
-.11149E+08
-.11132E+08
-.11224E+08
-.11061E+08
-.11150E+08
-.11134E+08
</weights>
</event>
<event>
      7  10001  1.11453E+07  1.12225E+00 -1.00000E+00  5.19880E-01
       3    -1     0     0   501     0  0.000000000E+00  0.000000000E+00  1.432883977E+00  1.432883977E+00  0.000000000E+00  0.00000E+00  9.000E+00
       4    -1     0     0   502     0  0.000000000E+00  0.000000000E+00 -9.809020493E+00  9.809020493E+00  0.000000000E+00  0.00000E+00  9.000E+00
      23     2     1     2     0     0  3.006103055E-01  2.486844536E-01 -8.206101697E+00  8.294823116E+00  1.145327438E+00  0.00000E+00  9.000E+00
      11     1     3     3     0     0  6.083296684E-01  2.016469285E-01 -7.444836582E+00  7.472370338E+00  5.110000000E-04  0.00000E+00  9.000E+00
     -11     1     3     3     0     0 -3.077193629E-01  4.703752510E-02 -7.612651149E-01  8.224527776E-01  5.110000000E-04  0.00000E+00  9.000E+00
       3     1     1     2   502     0 -1.273047820E+00 -8.088665912E-01  5.593205558E-01  1.608650179E+00  0.000000000E+00  0.00000E+00  9.000E+00
       4     1     1     2   501     0  9.724375148E-01  5.601821376E-01 -7.293553747E-01  1.338431175E+00  0.000000000E+00  0.00000E+00  9.000E+00
#rwgt            2         288   41769.142615226228                3    13781911           0
<weights>
0.11145E+08
0.11542E+08
0.10487E+08
0.14028E+08
0.84027E+07
0.91702E+07
0.13910E+08
0.11229E+08
0.11059E+08
0.10823E+08
0.10855E+08
0.10943E+08
0.11053E+08
0.10856E+08
0.10860E+08
0.11215E+08
0.11200E+08
0.11428E+08
0.11451E+08
0.11448E+08
0.11407E+08
0.11445E+08
0.11497E+08
0.11263E+08
0.11407E+08
0.11377E+08
0.11041E+08
0.11414E+08
0.11286E+08
0.11404E+08
0.11460E+08
0.11151E+08
0.11234E+08
0.11144E+08
0.11163E+08
0.11289E+08
0.11019E+08
0.10967E+08
0.11221E+08
0.11141E+08
0.11151E+08
0.11159E+08
0.11132E+08
0.11474E+08
0.10838E+08
</weights>
</event>
<event>
      7  10001  1.11453E+07  3.36559E+00 -1.00000E+00  2.78615E-01
      21    -1     0     0   502   501  0.000000000E+00  0.000000000E+00  1.205347775E+00  1.205347775E+00  0.000000000E+00  0.00000E+00  9.000E+00
      21    -1     0     0   501   511  0.000000000E+00  0.000000000E+00 -7.437959124E+01  7.437959124E+01  0.000000000E+00  0.00000E+00  9.000E+00
      23     2     1     2     0     0 -2.577916047E+00 -5.678490956E+00 -1.381677973E+01  1.519746937E+01  1.081093109E+00  0.00000E+00  9.000E+00
      11     1     3     3     0     0 -2.112422711E+00 -5.157900690E+00 -1.153172181E+01  1.280807860E+01  5.110000000E-04  0.00000E+00  9.000E+00
     -11     1     3     3     0     0 -4.654933357E-01 -5.205902658E-01 -2.285057928E+00  2.389390773E+00  5.110000000E-04  0.00000E+00  9.000E+00
       4     1     1     2   502     0  2.777194503E+00  2.318806985E+00 -6.631796504E+00  7.554495351E+00  0.000000000E+00  0.00000E+00  9.000E+00
      -4     1     1     2     0   511 -1.992784564E-01  3.359683971E+00 -5.272566722E+01  5.283297429E+01  0.000000000E+00  0.00000E+00  9.000E+00
#rwgt            1          19   915470.55961056123                3    13782352           0
<weights>
0.11145E+08
0.12740E+08
0.94839E+07
0.12926E+08
0.92256E+07
0.10883E+08
0.11280E+08
0.11263E+08
0.11027E+08
0.10757E+08
0.10829E+08
0.10902E+08
0.11052E+08
0.10810E+08
0.10830E+08
0.11211E+08
0.11212E+08
0.11447E+08
0.11499E+08
0.11494E+08
0.11427E+08
0.11464E+08
0.11547E+08
0.11250E+08
0.11473E+08
0.11439E+08
0.11013E+08
0.11442E+08
0.11272E+08
0.11403E+08
0.11483E+08
0.11123E+08
0.11269E+08
0.11161E+08
0.11144E+08
0.11344E+08
0.10970E+08
0.10825E+08
0.11363E+08
0.11127E+08
0.11164E+08
0.11149E+08
0.11143E+08
0.11516E+08
0.10795E+08
</weights>
</event>
<event>
      6  10001  1.11453E+07  8.94427E-01 -1.00000E+00  5.76558E-01
       3    -1     0     0   501     0  0.000000000E+00  0.000000000E+00  3.770646048E+01  3.770646048E+01  0.000000000E+00  0.00000E+00  9.000E+00
      -3    -1     0     0     0   502  0.000000000E+00  0.000000000E+00 -7.323826346E-02  7.323826346E-02  0.000000000E+00  0.00000E+00  9.000E+00
      23     2     1     2     0     0 -1.979231110E-01  4.059309489E-01  3.489383556E+01  3.500333552E+01  2.729429237E+00  0.00000E+00  9.000E+00
      11     1     3     3     0     0  3.306963984E-01  1.485747532E+00  2.245686599E+01  2.250839035E+01  5.110000000E-04  0.00000E+00  9.000E+00
     -11     1     3     3     0     0 -5.286195094E-01 -1.079816583E+00  1.243696957E+01  1.249494517E+01  5.110000000E-04  0.00000E+00  9.000E+00
      21     1     1     2   501   502  1.979231110E-01 -4.059309489E-01  2.739386658E+00  2.776363225E+00  4.214684851E-08  0.00000E+00  9.000E+00
#rwgt            1          25   47316.202091229672                3    13791329           0
<weights>
0.11145E+08
0.16544E+08
0.66605E+07
0.69109E+07
0.13091E+08
0.17664E+08
0.87156E+06
0.11091E+08
0.11203E+08
0.10640E+08
0.10552E+08
0.11003E+08
0.10730E+08
0.10618E+08
0.10575E+08
0.11087E+08
0.11500E+08
0.11171E+08
0.13555E+08
0.13024E+08
0.11213E+08
0.11776E+08
0.11880E+08
0.15240E+08
0.10466E+08
0.10264E+08
0.27583E+08
0.11322E+08
0.12296E+08
0.11793E+08
0.11881E+08
0.11338E+08
0.11163E+08
0.11140E+08
0.11210E+08
0.11138E+08
0.11183E+08
0.11525E+08
0.10691E+08
0.11270E+08
0.11034E+08
0.11263E+08
0.11020E+08
0.11779E+08
0.10577E+08
</weights>
</event>
<event>
      7  10001  1.11453E+07  6.65621E+00 -1.00000E+00  2.17762E-01
      21    -1     0     0   502   501  0.000000000E+00  0.000000000E+00  4.809498108E-01  4.809498108E-01  0.000000000E+00  0.00000E+00  9.000E+00
      -5    -1     0     0     0   502  0.000000000E+00  0.000000000E+00 -3.697144439E+01  3.697144439E+01  0.000000000E+00  0.00000E+00  9.000E+00
      23     2     1     2     0     0 -5.351049436E-01  1.173531997E+00 -1.478553737E+01  1.491254039E+01  1.451974792E+00  0.00000E+00  9.000E+00
      11     1     3     3     0     0 -8.674401093E-01  1.140765826E+00 -8.649281411E+00  8.767204127E+00  5.110000000E-04  0.00000E+00  9.000E+00
     -11     1     3     3     0     0  3.323351657E-01  3.276617140E-02 -6.136255958E+00  6.145336259E+00  5.110000000E-04  0.00000E+00  9.000E+00
      -5     1     1     2     0   511  2.328902129E+00  2.764175809E-01 -1.815847603E+01  1.830929937E+01  0.000000000E+00  0.00000E+00  9.000E+00
      21     1     1     2   511   501 -1.793797186E+00 -1.449949578E+00 -3.546481175E+00  4.230554437E+00  2.980232239E-07  0.00000E+00  9.000E+00
#rwgt            2         151   266242.10938175512                3    13794694           0
<weights>
0.11145E+08
0.11954E+08
0.98386E+07
0.14528E+08
0.78832E+07
0.91702E+07
0.13910E+08
0.11214E+08
0.11077E+08
0.10992E+08
0.11059E+08
0.11004E+08
0.11176E+08
0.11052E+08
0.11065E+08
0.11179E+08
0.11106E+08
0.11217E+08
0.11207E+08
0.11201E+08
0.11215E+08
0.11211E+08
0.11231E+08
0.11141E+08
0.11255E+08
0.11234E+08
0.11083E+08
0.11201E+08
0.11137E+08
0.11164E+08
0.11216E+08
0.11101E+08
0.11213E+08
0.11160E+08
0.11129E+08
0.11273E+08
0.11030E+08
0.10857E+08
0.11445E+08
0.11073E+08
0.11212E+08
0.11125E+08
0.11167E+08
0.11253E+08
0.11032E+08
</weights>
</event>
<event>
      6  10001 -1.11453E+07  8.94427E-01 -1.00000E+00  1.90506E-01
       2    -1     0     0   501     0  0.000000000E+00  0.000000000E+00  2.525299163E+02  2.525299163E+02  0.000000000E+00  0.00000E+00  9.000E+00
      21    -1     0     0   502   501  0.000000000E+00  0.000000000E+00 -2.116923229E-03  2.116923229E-03  0.000000000E+00  0.00000E+00  9.000E+00
      23     2     1     2     0     0  2.644439860E-01  5.270797220E-02  2.155308713E+02  2.155341226E+02  1.152727847E+00  0.00000E+00  9.000E+00
      11     1     3     3     0     0  1.727925356E-01 -3.123722158E-02  4.794246804E+00  4.797461381E+00  5.110000000E-04  0.00000E+00  9.000E+00
     -11     1     3     3     0     0  9.165145036E-02  8.394519378E-02  2.107366245E+02  2.107366612E+02  5.110000000E-04  0.00000E+00  9.000E+00
       2     1     1     2   502     0 -2.644439860E-01 -5.270797220E-02  3.699692801E+01  3.699791063E+01  0.000000000E+00  0.00000E+00  9.000E+00
#rwgt            1          24  -50693876.661130503                3    13796921           0
<weights>
-.11145E+08
-.11461E+08
-.10707E+08
-.13930E+08
-.85792E+07
-.91704E+07
-.13910E+08
-.11180E+08
-.11111E+08
-.10836E+08
-.10833E+08
-.10966E+08
-.11018E+08
-.10857E+08
-.10843E+08
-.11224E+08
-.11200E+08
-.11444E+08
-.11478E+08
-.11468E+08
-.11422E+08
-.11478E+08
-.11500E+08
-.11378E+08
-.11329E+08
-.11283E+08
-.11294E+08
-.11415E+08
-.11354E+08
-.11454E+08
-.11491E+08
-.11178E+08
-.11216E+08
-.11139E+08
-.11174E+08
-.11215E+08
-.11093E+08
-.11109E+08
-.11108E+08
-.11160E+08
-.11133E+08
-.11182E+08
-.11107E+08
-.11486E+08
-.10831E+08
</weights>
</event>
<event>
      7  10001  1.11453E+07  8.94427E-01 -1.00000E+00  6.07649E-01
      21    -1     0     0   511   502  0.000000000E+00  0.000000000E+00  1.162192406E+00  1.162192406E+00  0.000000000E+00  0.00000E+00  9.000E+00
       2    -1     0     0   501     0  0.000000000E+00  0.000000000E+00 -5.747155542E+01  5.747155542E+01  0.000000000E+00  0.00000E+00  9.000E+00
      23     2     1     2     0     0 -1.062683522E+00  2.729660737E-01 -5.615201244E+01  5.621524789E+01  2.429359516E+00  0.00000E+00  9.000E+00
      11     1     3     3     0     0 -1.779443041E+00  4.811423669E-01 -4.537076141E+01  4.540819207E+01  5.110000000E-04  0.00000E+00  9.000E+00
     -11     1     3     3     0     0  7.167595187E-01 -2.081762931E-01 -1.078125103E+01  1.080705582E+01  5.110000000E-04  0.00000E+00  9.000E+00
      21     1     1     2   501   502  1.276855250E+00 -2.450711495E-01  7.396743358E-01  1.495840005E+00  1.504943511E-07  0.00000E+00  9.000E+00
       2     1     1     2   511     0 -2.141717278E-01 -2.789492420E-02 -8.970249099E-01  9.226599291E-01  0.000000000E+00  0.00000E+00  9.000E+00
#rwgt            2         190   3182394.6590581089                3    13799315           0
<weights>
0.11145E+08
0.10673E+08
0.11501E+08
0.12972E+08
0.92155E+07
0.91702E+07
0.13910E+08
0.11180E+08
0.11111E+08
0.11095E+08
0.11131E+08
0.11156E+08
0.11072E+08
0.11125E+08
0.11130E+08
0.11116E+08
0.11163E+08
0.11069E+08
0.11268E+08
0.11279E+08
0.11060E+08
0.11158E+08
0.11151E+08
0.11235E+08
0.11076E+08
0.11096E+08
0.11165E+08
0.11290E+08
0.10933E+08
0.11160E+08
0.11138E+08
0.11141E+08
0.11151E+08
0.11068E+08
0.11248E+08
0.11125E+08
0.11163E+08
0.11051E+08
0.11249E+08
0.11081E+08
0.11197E+08
0.11204E+08
0.11082E+08
0.11168E+08
0.11118E+08
</weights>
</event>
<event>
      6  10001 -1.11453E+07  8.94427E-01 -1.00000E+00  3.31468E-01
       2    -1     0     0   501     0  0.000000000E+00  0.000000000E+00  1.861400064E+02  1.861400064E+02  0.000000000E+00  0.00000E+00  9.000E+00
      21    -1     0     0   502   501  0.000000000E+00  0.000000000E+00 -1.119313370E-02  1.119313370E-02  0.000000000E+00  0.00000E+00  9.000E+00
      23     2     1     2     0     0 -2.403381812E-01 -1.042835518E-01  1.842483650E+02  1.842525887E+02  1.219750633E+00  0.00000E+00  9.000E+00
      11     1     3     3     0     0  3.118146017E-01  1.952906534E-01  2.253274933E+01  2.253575292E+01  5.110000000E-04  0.00000E+00  9.000E+00
     -11     1     3     3     0     0 -5.521527828E-01 -2.995742052E-01  1.617156157E+02  1.617168358E+02  5.110000000E-04  0.00000E+00  9.000E+00
       2     1     1     2   502     0  2.403381812E-01  1.042835518E-01  1.880448228E+00  1.898610818E+00  0.000000000E+00  0.00000E+00  9.000E+00
#rwgt            1          24  -20695463.974631846                3    13800402           0
<weights>
-.11145E+08
-.12428E+08
-.96566E+07
-.15112E+08
-.77376E+07
-.91662E+07
-.13909E+08
-.11178E+08
-.11113E+08
-.10835E+08
-.10831E+08
-.10966E+08
-.11016E+08
-.10854E+08
-.10840E+08
-.11224E+08
-.11202E+08
-.11446E+08
-.11483E+08
-.11472E+08
-.11423E+08
-.11481E+08
-.11503E+08
-.11385E+08
-.11329E+08
-.11283E+08
-.11312E+08
-.11417E+08
-.11356E+08
-.11456E+08
-.11493E+08
-.11178E+08
-.11217E+08
-.11139E+08
-.11174E+08
-.11214E+08
-.11095E+08
-.11110E+08
-.11106E+08
-.11161E+08
-.11132E+08
-.11182E+08
-.11107E+08
-.11488E+08
-.10829E+08
</weights>
</event>
<event>
      6  10001 -1.11453E+07  8.94427E-01 -1.00000E+00  3.72557E-01
      21    -1     0     0   502   501  0.000000000E+00  0.000000000E+00  1.071598136E-02  1.071598136E-02  0.000000000E+00  0.00000E+00  9.000E+00
      -4    -1     0     0     0   502  0.000000000E+00  0.000000000E+00 -1.294310967E+02  1.294310967E+02  0.000000000E+00  0.00000E+00  9.000E+00
      23     2     1     2     0     0 -5.508778264E-01 -1.730646043E-01 -1.188377945E+02  1.188434850E+02  1.009513184E+00  0.00000E+00  9.000E+00
      11     1     3     3     0     0 -3.421205891E-01 -5.977440651E-01 -7.289267111E+01  7.289592476E+01  5.110000000E-04  0.00000E+00  9.000E+00
     -11     1     3     3     0     0 -2.087572374E-01  4.246794607E-01 -4.594512339E+01  4.594756029E+01  5.110000000E-04  0.00000E+00  9.000E+00
      -4     1     1     2     0   501  5.508778264E-01  1.730646043E-01 -1.058258617E+01  1.059832760E+01  0.000000000E+00  0.00000E+00  9.000E+00
#rwgt            1          12  -1350785.6545317960                3    13801599           0
<weights>
-.11145E+08
-.12706E+08
-.93999E+07
-.15442E+08
-.75317E+07
-.91702E+07
-.13910E+08
-.11099E+08
-.11189E+08
-.11343E+08
-.11302E+08
-.11079E+08
-.11422E+08
-.11375E+08
-.11349E+08
-.11122E+08
-.11027E+08
-.10950E+08
-.10848E+08
-.10846E+08
-.10969E+08
-.10926E+08
-.10830E+08
-.11103E+08
-.10874E+08
-.10956E+08
-.11209E+08
-.10971E+08
-.10975E+08
-.10927E+08
-.10906E+08
-.11135E+08
-.11084E+08
-.11126E+08
-.11155E+08
-.11158E+08
-.11126E+08
-.11073E+08
-.11284E+08
-.10973E+08
-.11306E+08
-.11056E+08
-.11240E+08
-.10925E+08
-.11332E+08
</weights>
</event>
<event>
      7  10001  1.11453E+07  1.48895E+00 -1.00000E+00  4.29662E-01
       1    -1     0     0   501     0  0.000000000E+00  0.000000000E+00  2.464977162E+01  2.464977162E+01  0.000000000E+00  0.00000E+00  9.000E+00
      21    -1     0     0   502   501  0.000000000E+00  0.000000000E+00 -2.755041709E-01  2.755041709E-01  0.000000000E+00  0.00000E+00  9.000E+00
      23     2     1     2     0     0 -2.942702931E-01  1.070838415E+00  1.797570649E+01  1.838819626E+01  3.710316390E+00  0.00000E+00  9.000E+00
      11     1     3     3     0     0  3.144879884E-01 -7.175755801E-01  1.359421944E+01  1.361677715E+01  5.110000000E-04  0.00000E+00  9.000E+00
     -11     1     3     3     0     0 -6.087582815E-01  1.788413995E+00  4.381487051E+00  4.771419108E+00  5.110000000E-04  0.00000E+00  9.000E+00
       1     1     1     2   511     0  8.107630917E-02 -4.704876664E-02  2.468085701E+00  2.469865175E+00  0.000000000E+00  0.00000E+00  9.000E+00
      21     1     1     2   502   511  2.131939840E-01 -1.023789648E+00  3.930475257E+00  4.067214362E+00  0.000000000E+00  0.00000E+00  9.000E+00
#rwgt            1          22   55111.567331579208                3    13802781           0
<weights>
0.11145E+08
0.16054E+08
0.75630E+07
0.25495E+07
0.16855E+08
0.20521E+08
-.35151E+07
0.11189E+08
0.11103E+08
0.10017E+08
0.99300E+07
0.10609E+08
0.10524E+08
0.10067E+08
0.99554E+07
0.11414E+08
0.11483E+08
0.12343E+08
0.12438E+08
0.12402E+08
0.12250E+08
0.12513E+08
0.12466E+08
0.12198E+08
0.11733E+08
0.11653E+08
0.11919E+08
0.12282E+08
0.12043E+08
0.12476E+08
0.12532E+08
0.11362E+08
0.11347E+08
0.11123E+08
0.11272E+08
0.11257E+08
0.11097E+08
0.11473E+08
0.10668E+08
0.11343E+08
0.10973E+08
0.11318E+08
0.10963E+08
0.12460E+08
0.99451E+07
</weights>
</event>
<event>
      7  10001  1.11453E+07  2.18798E+00 -1.00000E+00  3.38066E-01
       2    -1     0     0   501     0  0.000000000E+00  0.000000000E+00  8.160792920E-02  8.160792920E-02  0.000000000E+00  0.00000E+00  9.000E+00
      -2    -1     0     0     0   502  0.000000000E+00  0.000000000E+00 -1.170387812E+02  1.170387812E+02  0.000000000E+00  0.00000E+00  9.000E+00
      23     2     1     2     0     0 -1.677098176E+00 -1.251645306E+00 -7.953330629E+01  7.963556830E+01  3.449297637E+00  0.00000E+00  9.000E+00
      11     1     3     3     0     0 -2.382062095E+00 -4.808159339E-01 -7.053250235E+01  7.057435293E+01  5.110000000E-04  0.00000E+00  9.000E+00
     -11     1     3     3     0     0  7.049639183E-01 -7.708293723E-01 -9.000803945E+00  9.061215370E+00  5.110000000E-04  0.00000E+00  9.000E+00
      21     1     1     2   512   502  2.975766483E-02  1.359499752E-02 -1.296252613E-01  1.336901303E-01  8.119081973E-09  0.00000E+00  9.000E+00
      21     1     1     2   501   512  1.647340511E+00  1.238050309E+00 -3.729424168E+01  3.735113067E+01  8.259061849E-07  0.00000E+00  9.000E+00
#rwgt            1          23   160104.91263295856                3    13808413           0
<weights>
0.11145E+08
0.11922E+08
0.10360E+08
0.11930E+08
0.10084E+08
0.10946E+08
0.11183E+08
0.11186E+08
0.11103E+08
0.11131E+08
0.11187E+08
0.11089E+08
0.11130E+08
0.11190E+08
0.11188E+08
0.11042E+08
0.11216E+08
0.11160E+08
0.10989E+08
0.10957E+08
0.11181E+08
0.11085E+08
0.11074E+08
0.11152E+08
0.11079E+08
0.11132E+08
0.11116E+08
0.11089E+08
0.10981E+08
0.11069E+08
0.11094E+08
0.11133E+08
0.11137E+08
0.11330E+08
0.10963E+08
0.11044E+08
0.11220E+08
0.11043E+08
0.11275E+08
0.11107E+08
0.11161E+08
0.11322E+08
0.10955E+08
0.11103E+08
0.11173E+08
</weights>
</event>
<event>
      6  10001 -1.11453E+07  8.94427E-01 -1.00000E+00  2.94804E-01
      21    -1     0     0   502   501  0.000000000E+00  0.000000000E+00  7.288636789E-03  7.288636789E-03  0.000000000E+00  0.00000E+00  9.000E+00
       2    -1     0     0   501     0  0.000000000E+00  0.000000000E+00 -6.515608766E+02  6.515608766E+02  0.000000000E+00  0.00000E+00  9.000E+00
      23     2     1     2     0     0  2.341255398E-01 -2.086129779E-01 -6.478020508E+02  6.478035451E+02  1.355585062E+00  0.00000E+00  9.000E+00
      11     1     3     3     0     0  3.451125411E-01 -7.103721639E-01 -4.950191121E+02  4.950197421E+02  5.110000000E-04  0.00000E+00  9.000E+00
     -11     1     3     3     0     0 -1.109870013E-01  5.017591860E-01 -1.527829388E+02  1.527838030E+02  5.110000000E-04  0.00000E+00  9.000E+00
       2     1     1     2   502     0 -2.341255398E-01  2.086129779E-01 -3.751537154E+00  3.764620188E+00  0.000000000E+00  0.00000E+00  9.000E+00
#rwgt            1          17  -250967280.40936989                3    13811998           0
<weights>
-.11145E+08
-.11010E+08
-.11273E+08
-.13381E+08
-.90321E+07
-.91702E+07
-.13910E+08
-.11133E+08
-.11157E+08
-.11163E+08
-.11143E+08
-.10942E+08
-.11373E+08
-.11154E+08
-.11148E+08
-.11127E+08
-.11160E+08
-.11550E+08
-.10590E+08
-.10506E+08
-.11603E+08
-.11115E+08
-.11171E+08
-.10973E+08
-.11286E+08
-.11483E+08
-.10940E+08
-.10624E+08
-.11745E+08
-.11054E+08
-.11205E+08
-.11073E+08
-.11215E+08
-.11660E+08
-.10529E+08
-.11070E+08
-.11214E+08
-.11130E+08
-.11170E+08
-.11297E+08
-.11011E+08
-.11123E+08
-.11168E+08
-.11137E+08
-.11154E+08
</weights>
</event>
<event>
      6  10001  1.11453E+07  8.94427E-01 -1.00000E+00  6.05643E-01
       4    -1     0     0   501     0  0.000000000E+00  0.000000000E+00  4.008835804E+00  4.008835804E+00  0.000000000E+00  0.00000E+00  9.000E+00
      21    -1     0     0   502   501  0.000000000E+00  0.000000000E+00 -9.824878581E-01  9.824878581E-01  0.000000000E+00  0.00000E+00  9.000E+00
      23     2     1     2     0     0  4.578022023E-01 -6.192457249E-02  3.834585175E+00  4.060375261E+00  1.252671660E+00  0.00000E+00  9.000E+00
      11     1     3     3     0     0  4.257739296E-01 -1.812107274E-01  3.895340935E+00  3.922728900E+00  5.110000000E-04  0.00000E+00  9.000E+00
     -11     1     3     3     0     0  3.202827268E-02  1.192861550E-01 -6.075576014E-02  1.376463604E-01  5.110000000E-04  0.00000E+00  9.000E+00
       4     1     1     2   502     0 -4.578022023E-01  6.192457249E-02 -8.082372284E-01  9.309484016E-01  0.000000000E+00  0.00000E+00  9.000E+00
#rwgt            1          28   444356.81093877787                3    13812216           0
<weights>
0.11145E+08
0.28341E+08
-.51938E+07
0.13316E+08
0.79177E+07
0.22662E+08
-.68018E+07
0.11096E+08
0.11179E+08
0.99417E+07
0.95917E+07
0.10584E+08
0.10371E+08
0.98032E+07
0.96449E+07
0.11386E+08
0.11815E+08
0.12678E+08
0.12867E+08
0.12845E+08
0.12558E+08
0.12924E+08
0.12891E+08
0.12569E+08
0.11765E+08
0.11854E+08
0.11861E+08
0.12734E+08
0.12323E+08
0.12993E+08
0.12950E+08
0.11548E+08
0.11281E+08
0.11038E+08
0.11401E+08
0.11139E+08
0.11215E+08
0.12285E+08
0.96619E+07
0.11541E+08
0.10801E+08
0.11346E+08
0.10935E+08
0.12765E+08
0.97097E+07
</weights>
</event>
<event>
      6  10001 -1.11453E+07  8.94427E-01 -1.00000E+00  2.43001E-01
      21    -1     0     0   502   501  0.000000000E+00  0.000000000E+00  3.530915772E+00  3.530915772E+00  0.000000000E+00  0.00000E+00  9.000E+00
      -5    -1     0     0     0   502  0.000000000E+00  0.000000000E+00 -4.761613521E-01  4.761613521E-01  0.000000000E+00  0.00000E+00  9.000E+00
      23     2     1     2     0     0  2.811185074E-01 -3.890016968E-02  2.456713318E+00  3.345114891E+00  2.252512479E+00  0.00000E+00  9.000E+00
      11     1     3     3     0     0 -1.398954378E-01 -7.227377255E-01 -2.513258706E-02  7.365816054E-01  5.110000000E-04  0.00000E+00  9.000E+00
     -11     1     3     3     0     0  4.210139452E-01  6.838375558E-01  2.481845905E+00  2.608533286E+00  5.110000000E-04  0.00000E+00  9.000E+00
      -5     1     1     2     0   501 -2.811185074E-01  3.890016968E-02  5.980411014E-01  6.619622326E-01  0.000000000E+00  0.00000E+00  9.000E+00
#rwgt            1          11  -154830.13121052974                3    13875817           0
<weights>
-.11145E+08
-.90060E+07
-.12319E+08
-.15923E+08
-.73457E+07
-.61462E+07
-.18552E+08
-.11201E+08
-.11087E+08
-.10897E+08
-.10918E+08
-.10989E+08
-.11066E+08
-.10926E+08
-.10924E+08
-.11215E+08
-.11158E+08
-.11364E+08
-.11374E+08
-.11369E+08
-.11347E+08
-.11379E+08
-.11409E+08
-.11262E+08
-.11317E+08
-.11263E+08
-.11137E+08
-.11331E+08
-.11280E+08
-.11348E+08
-.11391E+08
-.11153E+08
-.11211E+08
-.11144E+08
-.11160E+08
-.11235E+08
-.11069E+08
-.11021E+08
-.11203E+08
-.11135E+08
-.11155E+08
-.11167E+08
-.11123E+08
-.11399E+08
-.10907E+08
</weights>
</event>
<event>
      6  10001  1.11453E+07  8.94427E-01 -1.00000E+00  5.61398E-01
       4    -1     0     0   501     0  0.000000000E+00  0.000000000E+00  2.758206652E-02  2.758206652E-02  0.000000000E+00  0.00000E+00  9.000E+00
      21    -1     0     0   502   501  0.000000000E+00  0.000000000E+00 -3.991059762E+01  3.991059762E+01  0.000000000E+00  0.00000E+00  9.000E+00
      23     2     1     2     0     0  2.330650906E-01 -1.794611166E-01 -1.246275644E+01  1.251634285E+01  1.118934596E+00  0.00000E+00  9.000E+00
      11     1     3     3     0     0  3.114038553E-01  4.201723033E-01 -4.407782799E+00  4.438701002E+00  5.110000000E-04  0.00000E+00  9.000E+00
     -11     1     3     3     0     0 -7.833876469E-02 -5.996334199E-01 -8.054973639E+00  8.077641846E+00  5.110000000E-04  0.00000E+00  9.000E+00
       4     1     1     2   502     0 -2.330650906E-01  1.794611166E-01 -2.742025912E+01  2.742183684E+01  0.000000000E+00  0.00000E+00  9.000E+00
#rwgt            1          28   542255.82577309536                3    13879282           0
<weights>
0.11156E+08
0.13012E+08
0.91463E+07
0.12943E+08
0.91255E+07
0.11086E+08
0.10996E+08
0.11333E+08
0.10980E+08
0.10625E+08
0.10766E+08
0.10859E+08
0.10996E+08
0.10713E+08
0.10752E+08
0.11258E+08
0.11200E+08
0.11533E+08
0.11611E+08
0.11603E+08
0.11507E+08
0.11550E+08
0.11680E+08
0.11251E+08
0.11618E+08
0.11499E+08
0.10996E+08
0.11489E+08
0.11329E+08
0.11454E+08
0.11581E+08
0.11100E+08
0.11342E+08
0.11194E+08
0.11130E+08
0.11417E+08
0.10927E+08
0.10642E+08
0.11570E+08
0.11136E+08
0.11175E+08
0.11182E+08
0.11130E+08
0.11635E+08
0.10700E+08
</weights>
</event>
<event>
      7  10001  1.11453E+07  3.19304E+00 -1.00000E+00  2.84691E-01
       4    -1     0     0   501     0  0.000000000E+00  0.000000000E+00  3.001064155E-01  3.001064155E-01  0.000000000E+00  0.00000E+00  9.000E+00
      21    -1     0     0   502   501  0.000000000E+00  0.000000000E+00 -1.549215675E+01  1.549215675E+01  0.000000000E+00  0.00000E+00  9.000E+00
      23     2     1     2     0     0 -2.830768468E-01  1.077563409E-01 -3.891034161E+00  4.314814475E+00  1.840036190E+00  0.00000E+00  9.000E+00
      11     1     3     3     0     0 -3.335331918E-01 -5.464933638E-02  7.412167770E-02  3.460133295E-01  5.110000000E-04  0.00000E+00  9.000E+00
     -11     1     3     3     0     0  5.045634500E-02  1.624056773E-01 -3.965155838E+00  3.968801145E+00  5.110000000E-04  0.00000E+00  9.000E+00
       4     1     1     2   511     0 -2.218167439E-01  2.141716936E-01 -2.164635141E-01  3.767341704E-01  0.000000000E+00  0.00000E+00  9.000E+00
      21     1     1     2   502   511  5.048935907E-01 -3.219280345E-01 -1.108455266E+01  1.110071452E+01  1.685873940E-07  0.00000E+00  9.000E+00
#rwgt            2         308   401115.36602821411                3    13910835           0
<weights>
0.11145E+08
0.11401E+08
0.10578E+08
0.13857E+08
0.84760E+07
0.91702E+07
0.13910E+08
0.11214E+08
0.11075E+08
0.10912E+08
0.10951E+08
0.10991E+08
0.11090E+08
0.10948E+08
0.10955E+08
0.11207E+08
0.11149E+08
0.11332E+08
0.11340E+08
0.11337E+08
0.11318E+08
0.11338E+08
0.11380E+08
0.11207E+08
0.11334E+08
0.11286E+08
0.11070E+08
0.11304E+08
0.11237E+08
0.11300E+08
0.11350E+08
0.11136E+08
0.11215E+08
0.11147E+08
0.11152E+08
0.11258E+08
0.11045E+08
0.10957E+08
0.11270E+08
0.11122E+08
0.11167E+08
0.11156E+08
0.11134E+08
0.11368E+08
0.10934E+08
</weights>
</event>
<event>
      7  10001  1.11453E+07  2.44973E+00 -1.00000E+00  3.20058E-01
       4    -1     0     0   501     0  0.000000000E+00  0.000000000E+00  2.576146470E+00  2.576146470E+00  0.000000000E+00  0.00000E+00  9.000E+00
      -1    -1     0     0     0   501  0.000000000E+00  0.000000000E+00 -2.570142774E+02  2.570142774E+02  0.000000000E+00  0.00000E+00  9.000E+00
      23     2     1     2     0     0  8.572100149E-01  3.448483425E-01  2.125332433E+00  2.836551431E+00  1.635621192E+00  0.00000E+00  9.000E+00
      11     1     3     3     0     0  7.918822719E-01  6.981335039E-01  2.225825458E+00  2.463486787E+00  5.110000000E-04  0.00000E+00  9.000E+00
     -11     1     3     3     0     0  6.532774305E-02 -3.532851614E-01 -1.004930249E-01  3.730646438E-01  5.110000000E-04  0.00000E+00  9.000E+00
       4     1     1     2   502     0 -7.194379979E-01  2.100999780E+00 -1.376032676E+01  1.393837809E+01  0.000000000E+00  0.00000E+00  9.000E+00
      -1     1     1     2     0   502 -1.377720170E-01 -2.445848123E+00 -2.428031366E+02  2.428154944E+02  0.000000000E+00  0.00000E+00  9.000E+00
#rwgt            1          28   4341767.1184388697                3    13913347           0
<weights>
0.11145E+08
0.12276E+08
0.97997E+07
0.12916E+08
0.92020E+07
0.10550E+08
0.11792E+08
0.11235E+08
0.11052E+08
0.10770E+08
0.10799E+08
0.10928E+08
0.11009E+08
0.10800E+08
0.10802E+08
0.11234E+08
0.11209E+08
0.11487E+08
0.11515E+08
0.11513E+08
0.11460E+08
0.11510E+08
0.11571E+08
0.11298E+08
0.11444E+08
0.11385E+08
0.11050E+08
0.11458E+08
0.11340E+08
0.11468E+08
0.11528E+08
0.11161E+08
0.11243E+08
0.11143E+08
0.11168E+08
0.11287E+08
0.11023E+08
0.10985E+08
0.11177E+08
0.11159E+08
0.11135E+08
0.11175E+08
0.11115E+08
0.11537E+08
0.10782E+08
</weights>
</event>
<event>
      6  10001  1.11453E+07  8.94427E-01 -1.00000E+00  6.07620E-01
       2    -1     0     0   501     0  0.000000000E+00  0.000000000E+00  6.386118360E-02  6.386118360E-02  0.000000000E+00  0.00000E+00  9.000E+00
      21    -1     0     0   502   501  0.000000000E+00  0.000000000E+00 -1.527805559E+01  1.527805559E+01  0.000000000E+00  0.00000E+00  9.000E+00
      23     2     1     2     0     0  4.617804612E-01  1.262234369E-01 -9.946661867E+00  1.005267556E+01  1.375147298E+00  0.00000E+00  9.000E+00
      11     1     3     3     0     0  8.514821894E-01 -8.491429114E-02 -8.408505403E+00  8.451934437E+00  5.110000000E-04  0.00000E+00  9.000E+00
     -11     1     3     3     0     0 -3.897017282E-01  2.111377280E-01 -1.538156464E+00  1.600741124E+00  5.110000000E-04  0.00000E+00  9.000E+00
       2     1     1     2   502     0 -4.617804612E-01 -1.262234369E-01 -5.267532541E+00  5.289241214E+00  0.000000000E+00  0.00000E+00  9.000E+00
#rwgt            1          24   584352.21704934002                3    13999496           0
<weights>
0.11145E+08
0.14041E+08
0.84016E+07
0.10898E+08
0.10552E+08
0.13237E+08
0.76668E+07
0.11304E+08
0.10979E+08
0.10401E+08
0.10425E+08
0.10760E+08
0.10818E+08
0.10428E+08
0.10426E+08
0.11294E+08
0.11365E+08
0.11865E+08
0.11954E+08
0.11955E+08
0.11806E+08
0.11925E+08
0.12049E+08
0.11497E+08
0.11752E+08
0.11677E+08
0.10963E+08
0.11846E+08
0.11570E+08
0.11864E+08
0.11960E+08
0.11210E+08
0.11321E+08
0.11140E+08
0.11196E+08
0.11386E+08
0.10941E+08
0.10975E+08
0.11020E+08
0.11239E+08
0.11064E+08
0.11211E+08
0.11077E+08
0.11957E+08
0.10403E+08
</weights>
</event>
<event>
      7  10001  1.11453E+07  2.45453E+00 -1.00000E+00  3.19762E-01
      21    -1     0     0   511   501  0.000000000E+00  0.000000000E+00  1.611204248E+02  1.611204248E+02  0.000000000E+00  0.00000E+00  9.000E+00
      -2    -1     0     0     0   502  0.000000000E+00  0.000000000E+00 -7.610197401E-01  7.610197401E-01  0.000000000E+00  0.00000E+00  9.000E+00
      23     2     1     2     0     0 -1.968796017E+00  1.197258661E+00  4.729392908E+00  5.560223916E+00  1.799818508E+00  0.00000E+00  9.000E+00
      11     1     3     3     0     0 -1.488807149E+00  7.664829347E-01  4.609488111E+00  4.904225089E+00  5.110000000E-04  0.00000E+00  9.000E+00
     -11     1     3     3     0     0 -4.799888678E-01  4.307757264E-01  1.199047968E-01  6.559988271E-01  5.110000000E-04  0.00000E+00  9.000E+00
      -2     1     1     2     0   501  2.922013147E+00  1.064619225E+00  6.871788322E+00  7.542748151E+00  0.000000000E+00  0.00000E+00  9.000E+00
      21     1     1     2   511   502 -9.532171299E-01 -2.261877886E+00  1.487582239E+02  1.487784725E+02  2.697398305E-06  0.00000E+00  9.000E+00
#rwgt            1          14   512855.14171984518                3    14065898           0
<weights>
0.11145E+08
0.12603E+08
0.96960E+07
0.12405E+08
0.96281E+07
0.11120E+08
0.10917E+08
0.10935E+08
0.11387E+08
0.10814E+08
0.10767E+08
0.10977E+08
0.10947E+08
0.10819E+08
0.10782E+08
0.11167E+08
0.11327E+08
0.11528E+08
0.11495E+08
0.11477E+08
0.11507E+08
0.11557E+08
0.11545E+08
0.11470E+08
0.11288E+08
0.11389E+08
0.11130E+08
0.11525E+08
0.11325E+08
0.11548E+08
0.11548E+08
0.11154E+08
0.11262E+08
0.11145E+08
0.11180E+08
0.10969E+08
0.11361E+08
0.11199E+08
0.11018E+08
0.11176E+08
0.11115E+08
0.11230E+08
0.11056E+08
0.11539E+08
0.10786E+08
</weights>
</event>
<event>
      6  10001 -1.11453E+07  8.94427E-01 -1.00000E+00  4.58116E-01
      21    -1     0     0   502   501  0.000000000E+00  0.000000000E+00  1.519754738E-03  1.519754738E-03  0.000000000E+00  0.00000E+00  9.000E+00
       2    -1     0     0   501     0  0.000000000E+00  0.000000000E+00 -8.338362907E+02  8.338362907E+02  0.000000000E+00  0.00000E+00  9.000E+00
      23     2     1     2     0     0 -1.504138916E-01 -2.717262414E-01 -8.101600821E+02  8.101610845E+02  1.236029318E+00  0.00000E+00  9.000E+00
      11     1     3     3     0     0  3.488925163E-01 -5.660877404E-01 -5.185606849E+02  5.185611113E+02  5.110000000E-04  0.00000E+00  9.000E+00
     -11     1     3     3     0     0 -4.993064079E-01  2.943614990E-01 -2.915993972E+02  2.915999732E+02  5.110000000E-04  0.00000E+00  9.000E+00
       2     1     1     2   502     0  1.504138916E-01  2.717262414E-01 -2.367468885E+01  2.367672595E+01  0.000000000E+00  0.00000E+00  9.000E+00
#rwgt            1          17  -61125820.992097534                3    14076020           0
<weights>
-.11145E+08
-.10578E+08
-.11776E+08
-.12856E+08
-.94355E+07
-.91702E+07
-.13910E+08
-.11136E+08
-.11154E+08
-.11163E+08
-.11137E+08
-.10916E+08
-.11401E+08
-.11152E+08
-.11145E+08
-.10929E+08
-.11452E+08
-.11592E+08
-.10543E+08
-.10445E+08
-.11654E+08
-.11123E+08
-.11164E+08
-.10920E+08
-.11345E+08
-.11610E+08
-.10868E+08
-.10537E+08
-.11862E+08
-.11047E+08
-.11213E+08
-.11149E+08
-.11138E+08
-.11772E+08
-.10407E+08
-.11048E+08
-.11235E+08
-.11117E+08
-.11186E+08
-.11328E+08
-.10984E+08
-.11116E+08
-.11176E+08
-.11139E+08
-.11152E+08
</weights>
</event>
<event>
      7  10001  1.11453E+07  1.87133E+00 -1.00000E+00  3.66764E-01
      21    -1     0     0   502   511  0.000000000E+00  0.000000000E+00  8.499691838E+01  8.499691838E+01  0.000000000E+00  0.00000E+00  9.000E+00
       2    -1     0     0   501     0  0.000000000E+00  0.000000000E+00 -7.588356313E-01  7.588356313E-01  0.000000000E+00  0.00000E+00  9.000E+00
      23     2     1     2     0     0 -2.210821016E-01  1.419866838E-01  1.459039875E-01  1.493930051E+00  1.463386999E+00  0.00000E+00  9.000E+00
      11     1     3     3     0     0  5.047344602E-01  2.410149114E-01 -3.016564563E-01  6.354855951E-01  5.110000000E-04  0.00000E+00  9.000E+00
     -11     1     3     3     0     0 -7.258165618E-01 -9.902822757E-02  4.475604438E-01  8.584444555E-01  5.110000000E-04  0.00000E+00  9.000E+00
       2     1     1     2   502     0 -1.544197491E+00  4.790356534E-01  8.855928889E+00  9.002305123E+00  0.000000000E+00  0.00000E+00  9.000E+00
      21     1     1     2   501   511  1.765279593E+00 -6.210223372E-01  7.523624987E+01  7.525951884E+01  1.348699152E-06  0.00000E+00  9.000E+00
#rwgt            1          17   2328809.6044906667                3    14078131           0
<weights>
0.11145E+08
0.12708E+08
0.95348E+07
0.12848E+08
0.92751E+07
0.10897E+08
0.11258E+08
0.10942E+08
0.11378E+08
0.10819E+08
0.10773E+08
0.10986E+08
0.10944E+08
0.10824E+08
0.10789E+08
0.11158E+08
0.11338E+08
0.11507E+08
0.11510E+08
0.11495E+08
0.11485E+08
0.11551E+08
0.11537E+08
0.11457E+08
0.11297E+08
0.11374E+08
0.11140E+08
0.11534E+08
0.11306E+08
0.11544E+08
0.11539E+08
0.11162E+08
0.11252E+08
0.11131E+08
0.11197E+08
0.10978E+08
0.11352E+08
0.11199E+08
0.11019E+08
0.11172E+08
0.11119E+08
0.11229E+08
0.11057E+08
0.11533E+08
0.10792E+08
</weights>
</event>
<event>
      7  10001  1.11453E+07  2.36064E+00 -1.00000E+00  3.25751E-01
      21    -1     0     0   502   511  0.000000000E+00  0.000000000E+00  8.233396671E+02  8.233396671E+02  0.000000000E+00  0.00000E+00  9.000E+00
       2    -1     0     0   501     0  0.000000000E+00  0.000000000E+00 -3.063026605E+01  3.063026605E+01  0.000000000E+00  0.00000E+00  9.000E+00
      23     2     1     2     0     0  7.135643100E-02 -5.328336890E-01 -2.315592246E+01  2.320167306E+01  1.353471119E+00  0.00000E+00  9.000E+00
      11     1     3     3     0     0 -4.504033459E-01 -1.214008954E-02 -3.137859880E+00  3.170043445E+00  5.110000000E-04  0.00000E+00  9.000E+00
     -11     1     3     3     0     0  5.217597769E-01 -5.206935995E-01 -2.001806258E+01  2.003162961E+01  5.110000000E-04  0.00000E+00  9.000E+00
       2     1     1     2   502     0  1.003020994E+00 -1.569150790E+00 -7.333387014E+00  7.566164841E+00  0.000000000E+00  0.00000E+00  9.000E+00
      21     1     1     2   501   511 -1.074377425E+00  2.101984479E+00  8.231987105E+02  8.232020953E+02  1.525878906E-05  0.00000E+00  9.000E+00
#rwgt            1          17   1946482.3482657883                3    14088621           0
<weights>
0.11145E+08
0.13887E+08
0.84062E+07
0.13191E+08
0.89589E+07
0.11574E+08
0.10220E+08
0.11198E+08
0.11090E+08
0.10925E+08
0.10963E+08
0.11136E+08
0.10906E+08
0.10951E+08
0.10961E+08
0.10994E+08
0.11448E+08
0.11153E+08
0.11595E+08
0.11610E+08
0.11133E+08
0.11348E+08
0.11360E+08
0.11318E+08
0.11249E+08
0.11254E+08
0.11103E+08
0.11559E+08
0.10894E+08
0.11346E+08
0.11305E+08
0.11171E+08
0.11179E+08
0.11033E+08
0.11324E+08
0.10994E+08
0.11305E+08
0.10997E+08
0.11227E+08
0.11087E+08
0.11188E+08
0.11267E+08
0.11015E+08
0.11355E+08
0.10949E+08
</weights>
</event>
<event>
      7  10001  1.11453E+07  1.30509E+00 -1.00000E+00  4.69406E-01
      -2    -1     0     0     0   502  0.000000000E+00  0.000000000E+00  5.351484430E-01  5.351484430E-01  0.000000000E+00  0.00000E+00  9.000E+00
      21    -1     0     0   502   501  0.000000000E+00  0.000000000E+00 -8.108071865E+00  8.108071865E+00  0.000000000E+00  0.00000E+00  9.000E+00
      23     2     1     2     0     0  5.636458330E-01  2.003397827E-01 -2.484469039E-01  1.261783214E+00  1.082838105E+00  0.00000E+00  9.000E+00
      11     1     3     3     0     0  6.125372793E-01 -3.305617610E-01 -6.994539209E-02  6.995467213E-01  5.110000000E-04  0.00000E+00  9.000E+00
     -11     1     3     3     0     0 -4.889144630E-02  5.309015437E-01 -1.785015119E-01  5.622364925E-01  5.110000000E-04  0.00000E+00  9.000E+00
      -2     1     1     2     0   511  2.638963354E-02  2.003014819E-01 -1.608925385E+00  1.621560357E+00  0.000000000E+00  0.00000E+00  9.000E+00
      21     1     1     2   511   501 -5.900354665E-01 -4.006412646E-01 -5.715551133E+00  5.759876737E+00  8.429369702E-08  0.00000E+00  9.000E+00
#rwgt            1           7   2350544.9382829657                3    14094096           0
<weights>
0.11145E+08
0.12359E+08
0.98402E+07
0.12789E+08
0.93142E+07
0.10667E+08
0.11613E+08
0.11224E+08
0.11062E+08
0.10755E+08
0.10760E+08
0.10919E+08
0.10993E+08
0.10779E+08
0.10768E+08
0.11244E+08
0.11224E+08
0.11527E+08
0.11542E+08
0.11540E+08
0.11496E+08
0.11557E+08
0.11599E+08
0.11344E+08
0.11437E+08
0.11391E+08
0.11071E+08
0.11500E+08
0.11375E+08
0.11523E+08
0.11573E+08
0.11183E+08
0.11234E+08
0.11134E+08
0.11182E+08
0.11274E+08
0.11036E+08
0.11061E+08
0.11097E+08
0.11171E+08
0.11124E+08
0.11181E+08
0.11108E+08
0.11571E+08
0.10753E+08
</weights>
</event>
<event>
      6  10001 -1.11453E+07  8.94427E-01 -1.00000E+00  5.47067E-01
       1    -1     0     0   501     0  0.000000000E+00  0.000000000E+00  4.974194430E+01  4.974194430E+01  0.000000000E+00  0.00000E+00  9.000E+00
      21    -1     0     0   502   501  0.000000000E+00  0.000000000E+00 -2.503987635E-02  2.503987635E-02  0.000000000E+00  0.00000E+00  9.000E+00
      23     2     1     2     0     0  2.529651904E-01 -5.496663267E-01  2.961426177E+01  2.965523720E+01  1.436129946E+00  0.00000E+00  9.000E+00
      11     1     3     3     0     0 -4.395353353E-01 -5.474078765E-01  2.150645602E+01  2.151791108E+01  5.110000000E-04  0.00000E+00  9.000E+00
     -11     1     3     3     0     0  6.925005256E-01 -2.258450231E-03  8.107805750E+00  8.137326122E+00  5.110000000E-04  0.00000E+00  9.000E+00
       1     1     1     2   502     0 -2.529651904E-01  5.496663267E-01  2.010264266E+01  2.011174697E+01  0.000000000E+00  0.00000E+00  9.000E+00
#rwgt            1          22  -1112907.9945184696                3    14133611           0
<weights>
-.11145E+08
-.13348E+08
-.87301E+07
-.16225E+08
-.69951E+07
-.91692E+07
-.13910E+08
-.11174E+08
-.11117E+08
-.10853E+08
-.10846E+08
-.10973E+08
-.11026E+08
-.10872E+08
-.10856E+08
-.11222E+08
-.11196E+08
-.11431E+08
-.11461E+08
-.11451E+08
-.11410E+08
-.11464E+08
-.11481E+08
-.11375E+08
-.11314E+08
-.11274E+08
-.11304E+08
-.11403E+08
-.11346E+08
-.11442E+08
-.11476E+08
-.11178E+08
-.11211E+08
-.11137E+08
-.11175E+08
-.11209E+08
-.11098E+08
-.11120E+08
-.11102E+08
-.11158E+08
-.11135E+08
-.11180E+08
-.11109E+08
-.11470E+08
-.10846E+08
</weights>
</event>
<event>
      7  10001 -1.11453E+07  1.39818E+00 -1.00000E+00  4.48132E-01
      21    -1     0     0   511   501  0.000000000E+00  0.000000000E+00  7.325758409E+01  7.325758409E+01  0.000000000E+00  0.00000E+00  9.000E+00
      -2    -1     0     0     0   502  0.000000000E+00  0.000000000E+00 -2.117951432E+00  2.117951432E+00  0.000000000E+00  0.00000E+00  9.000E+00
      23     2     1     2     0     0 -4.490671667E-01  4.703329409E-01 -6.841451450E-01  1.501719829E+00  1.168004054E+00  0.00000E+00  9.000E+00
      11     1     3     3     0     0 -5.145740022E-01  2.750072700E-02 -8.746941464E-01  1.015200869E+00  5.110000000E-04  0.00000E+00  9.000E+00
     -11     1     3     3     0     0  6.550683551E-02  4.428322139E-01  1.905490014E-01  4.865189598E-01  5.110000000E-04  0.00000E+00  9.000E+00
      -2     1     1     2     0   501 -3.709386812E-01  6.621447801E-01 -8.768768585E-01  1.159717310E+00  0.000000000E+00  0.00000E+00  9.000E+00
      21     1     1     2   511   502  8.200058479E-01 -1.132477721E+00  7.270065466E+01  7.271409838E+01  9.536743164E-07  0.00000E+00  9.000E+00
#rwgt            1          14  -340525.52302155894                3    14134496           0
<weights>
-.11145E+08
-.92826E+07
-.12213E+08
-.17293E+08
-.65437E+07
-.54451E+07
-.19628E+08
-.11325E+08
-.10953E+08
-.10911E+08
-.10961E+08
-.10982E+08
-.11110E+08
-.10950E+08
-.10963E+08
-.11237E+08
-.11099E+08
-.11318E+08
-.11344E+08
-.11346E+08
-.11301E+08
-.11327E+08
-.11378E+08
-.11177E+08
-.11355E+08
-.11240E+08
-.11111E+08
-.11275E+08
-.11267E+08
-.11285E+08
-.11349E+08
-.11156E+08
-.11192E+08
-.11144E+08
-.11153E+08
-.11362E+08
-.10931E+08
-.10947E+08
-.11275E+08
-.11122E+08
-.11168E+08
-.11141E+08
-.11151E+08
-.11364E+08
-.10937E+08
</weights>
</event>
<event>
      7  10001  1.11453E+07  8.94427E-01 -1.00000E+00  6.07649E-01
       1    -1     0     0   501     0  0.000000000E+00  0.000000000E+00  3.960523125E+01  3.960523125E+01  0.000000000E+00  0.00000E+00  9.000E+00
      21    -1     0     0   502   501  0.000000000E+00  0.000000000E+00 -1.445984242E-01  1.445984242E-01  0.000000000E+00  0.00000E+00  9.000E+00
      23     2     1     2     0     0  2.344939199E-01  1.014470544E-01  3.934609119E+01  3.936339082E+01  1.138580664E+00  0.00000E+00  9.000E+00
      11     1     3     3     0     0 -4.613751851E-01  9.439642769E-02  1.607165650E+01  1.607855468E+01  5.110000000E-04  0.00000E+00  9.000E+00
     -11     1     3     3     0     0  6.958691050E-01  7.050626692E-03  2.327443469E+01  2.328483613E+01  5.110000000E-04  0.00000E+00  9.000E+00
       1     1     1     2   511     0 -1.952221452E-01 -1.235858945E-01  1.895969524E-01  2.988848668E-01  0.000000000E+00  0.00000E+00  9.000E+00
      21     1     1     2   502   511 -3.927177469E-02  2.213884013E-02 -7.505531602E-02  8.755398902E-02  1.544957205E-07  0.00000E+00  9.000E+00
#rwgt            2         218   2530484.0972199580                3    14144860           0
<weights>
0.11145E+08
0.11294E+08
0.10734E+08
0.13727E+08
0.86007E+07
0.91702E+07
0.13910E+08
0.11181E+08
0.11108E+08
0.10827E+08
0.10819E+08
0.10962E+08
0.11011E+08
0.10845E+08
0.10829E+08
0.11227E+08
0.11206E+08
0.11459E+08
0.11490E+08
0.11481E+08
0.11435E+08
0.11495E+08
0.11515E+08
0.11387E+08
0.11334E+08
0.11290E+08
0.11279E+08
0.11430E+08
0.11365E+08
0.11472E+08
0.11507E+08
0.11182E+08
0.11216E+08
0.11138E+08
0.11177E+08
0.11215E+08
0.11093E+08
0.11124E+08
0.11092E+08
0.11165E+08
0.11129E+08
0.11183E+08
0.11106E+08
0.11500E+08
0.10819E+08
</weights>
</event>
<event>
      7  10001  1.11453E+07  1.71008E+00 -1.00000E+00  3.85743E-01
      -2    -1     0     0     0   502  0.000000000E+00  0.000000000E+00  6.880646794E-02  6.880646794E-02  0.000000000E+00  0.00000E+00  9.000E+00
      21    -1     0     0   512   501  0.000000000E+00  0.000000000E+00 -1.205281745E+02  1.205281745E+02  0.000000000E+00  0.00000E+00  9.000E+00
      23     2     1     2     0     0 -7.823636820E-01 -8.411870536E-01 -5.119099478E+01  5.122199363E+01  1.361982691E+00  0.00000E+00  9.000E+00
      11     1     3     3     0     0 -3.748220788E-01 -9.536171457E-01 -4.667695435E+01  4.668819921E+01  5.110000000E-04  0.00000E+00  9.000E+00
     -11     1     3     3     0     0 -4.075416032E-01  1.124300921E-01 -4.514040427E+00  4.533794429E+00  5.110000000E-04  0.00000E+00  9.000E+00
      -2     1     1     2     0   501  1.384319000E+00 -7.594426343E-01 -1.567182910E+01  1.575116883E+01  0.000000000E+00  0.00000E+00  9.000E+00
      21     1     1     2   512   502 -6.019553181E-01  1.600629688E+00 -5.359654416E+01  5.362381851E+01  0.000000000E+00  0.00000E+00  9.000E+00
#rwgt            1           7   315104.64573063498                3    14145833           0
<weights>
0.11145E+08
0.11872E+08
0.10336E+08
0.12232E+08
0.98233E+07
0.10703E+08
0.11557E+08
0.11281E+08
0.11012E+08
0.10804E+08
0.10940E+08
0.10927E+08
0.11092E+08
0.10903E+08
0.10932E+08
0.11224E+08
0.11102E+08
0.11342E+08
0.11349E+08
0.11340E+08
0.11333E+08
0.11337E+08
0.11401E+08
0.11154E+08
0.11426E+08
0.11344E+08
0.11032E+08
0.11294E+08
0.11203E+08
0.11253E+08
0.11354E+08
0.11074E+08
0.11282E+08
0.11187E+08
0.11105E+08
0.11354E+08
0.10959E+08
0.10662E+08
0.11629E+08
0.11080E+08
0.11205E+08
0.11147E+08
0.11144E+08
0.11411E+08
0.10881E+08
</weights>
</event>
<event>
      7  10001  1.11453E+07  9.06726E+00 -1.00000E+00  2.00226E-01
       4    -1     0     0   501     0  0.000000000E+00  0.000000000E+00  8.172250879E-01  8.172250879E-01  0.000000000E+00  0.00000E+00  9.000E+00
      21    -1     0     0   502   501  0.000000000E+00  0.000000000E+00 -2.718547891E+01  2.718547891E+01  0.000000000E+00  0.00000E+00  9.000E+00
      23     2     1     2     0     0  4.429532119E-01 -5.939318229E-01 -5.132413556E-01  1.523581841E+00  1.228382017E+00  0.00000E+00  9.000E+00
      11     1     3     3     0     0 -3.968329468E-01 -4.167219727E-01 -1.809468878E-01  6.032210436E-01  5.110000000E-04  0.00000E+00  9.000E+00
     -11     1     3     3     0     0  8.397861587E-01 -1.772098502E-01 -3.322944678E-01  9.203607976E-01  5.110000000E-04  0.00000E+00  9.000E+00
       4     1     1     2   511     0 -2.816418458E-01 -2.185547751E-01  2.014637551E-01  4.094825560E-01  0.000000000E+00  0.00000E+00  9.000E+00
      21     1     1     2   502   511 -1.613113661E-01  8.124865980E-01 -2.605647622E+01  2.606963960E+01  0.000000000E+00  0.00000E+00  9.000E+00
#rwgt            2         308   3298773.3911951431                3    14167077           0
<weights>
0.11145E+08
0.10914E+08
0.11137E+08
0.13264E+08
0.89237E+07
0.91702E+07
0.13910E+08
0.11217E+08
0.11073E+08
0.10942E+08
0.10997E+08
0.11001E+08
0.11117E+08
0.10986E+08
0.10999E+08
0.11197E+08
0.11129E+08
0.11285E+08
0.11291E+08
0.11287E+08
0.11276E+08
0.11285E+08
0.11327E+08
0.11170E+08
0.11316E+08
0.11270E+08
0.11066E+08
0.11258E+08
0.11197E+08
0.11242E+08
0.11296E+08
0.11119E+08
0.11217E+08
0.11153E+08
0.11141E+08
0.11265E+08
0.11038E+08
0.10908E+08
0.11346E+08
0.11106E+08
0.11181E+08
0.11148E+08
0.11143E+08
0.11322E+08
0.10973E+08
</weights>
</event>
<event>
      7  10001  1.11453E+07  1.26778E+01 -1.00000E+00  1.84206E-01
      -5    -1     0     0     0   502  0.000000000E+00  0.000000000E+00  2.311839320E+01  2.311839320E+01  0.000000000E+00  0.00000E+00  9.000E+00
      21    -1     0     0   502   501  0.000000000E+00  0.000000000E+00 -2.015855584E+00  2.015855584E+00  0.000000000E+00  0.00000E+00  9.000E+00
      23     2     1     2     0     0 -9.844224262E-01 -1.053968139E-01  8.005294178E+00  8.269821393E+00  1.823462362E+00  0.00000E+00  9.000E+00
      11     1     3     3     0     0  5.066238712E-01 -2.712026577E-01  2.231898703E+00  2.304688853E+00  5.110000000E-04  0.00000E+00  9.000E+00
     -11     1     3     3     0     0 -1.491046297E+00  1.658058438E-01  5.773395476E+00  5.965132540E+00  5.110000000E-04  0.00000E+00  9.000E+00
      -5     1     1     2     0   512 -2.799751376E+00 -2.265118641E+00  1.161344486E+01  1.215900784E+01  0.000000000E+00  0.00000E+00  9.000E+00
      21     1     1     2   512   501  3.784173802E+00  2.370515455E+00  1.483798577E+00  4.705419546E+00  5.372690075E-07  0.00000E+00  9.000E+00
#rwgt            2          11   201812.86282947878                3    14168088           0
<weights>
0.11145E+08
0.11754E+08
0.99919E+07
0.14286E+08
0.80060E+07
0.91702E+07
0.13910E+08
0.11201E+08
0.11086E+08
0.10862E+08
0.10872E+08
0.10974E+08
0.11043E+08
0.10887E+08
0.10880E+08
0.11223E+08
0.11179E+08
0.11412E+08
0.11420E+08
0.11416E+08
0.11391E+08
0.11433E+08
0.11459E+08
0.11298E+08
0.11338E+08
0.11289E+08
0.11137E+08
0.11381E+08
0.11314E+08
0.11405E+08
0.11445E+08
0.11167E+08
0.11213E+08
0.11140E+08
0.11169E+08
0.11236E+08
0.11070E+08
0.11063E+08
0.11155E+08
0.11148E+08
0.11144E+08
0.11172E+08
0.11117E+08
0.11447E+08
0.10865E+08
</weights>
</event>
<event>
      6  10001 -1.11453E+07  8.94427E-01 -1.00000E+00  2.06491E-01
      21    -1     0     0   502   501  0.000000000E+00  0.000000000E+00  3.415916032E-03  3.415916032E-03  0.000000000E+00  0.00000E+00  9.000E+00
       2    -1     0     0   501     0  0.000000000E+00  0.000000000E+00 -2.856188651E+02  2.856188651E+02  0.000000000E+00  0.00000E+00  9.000E+00
      23     2     1     2     0     0 -2.933088640E-01  2.207282864E-01 -1.780861663E+02  1.780923716E+02  1.440634491E+00  0.00000E+00  9.000E+00
      11     1     3     3     0     0  4.139149802E-01 -3.006069828E-02 -1.943345861E+01  1.943788937E+01  5.110000000E-04  0.00000E+00  9.000E+00
     -11     1     3     3     0     0 -7.072238442E-01  2.507889847E-01 -1.586527077E+02  1.586544822E+02  5.110000000E-04  0.00000E+00  9.000E+00
       2     1     1     2   502     0  2.933088640E-01 -2.207282864E-01 -1.075292828E+02  1.075299094E+02  0.000000000E+00  0.00000E+00  9.000E+00
#rwgt            1          17  -3551037.4760906911                3    14169289           0
<weights>
-.11145E+08
-.11628E+08
-.10512E+08
-.14132E+08
-.84230E+07
-.91702E+07
-.13910E+08
-.11127E+08
-.11162E+08
-.11171E+08
-.11163E+08
-.11059E+08
-.11250E+08
-.11165E+08
-.11163E+08
-.11333E+08
-.10859E+08
-.11323E+08
-.10852E+08
-.10817E+08
-.11342E+08
-.11104E+08
-.11154E+08
-.11136E+08
-.11105E+08
-.11194E+08
-.11106E+08
-.10931E+08
-.11337E+08
-.11090E+08
-.11157E+08
-.11035E+08
-.11249E+08
-.11324E+08
-.10913E+08
-.11128E+08
-.11159E+08
-.11168E+08
-.11124E+08
-.11194E+08
-.11099E+08
-.11153E+08
-.11137E+08
-.11122E+08
-.11168E+08
</weights>
</event>
<event>
      7  10001  1.11453E+07  1.22070E+00 -1.00000E+00  4.91029E-01
      21    -1     0     0   502   511  0.000000000E+00  0.000000000E+00  1.981172863E+01  1.981172863E+01  0.000000000E+00  0.00000E+00  9.000E+00
      -2    -1     0     0     0   502  0.000000000E+00  0.000000000E+00 -1.119417177E+01  1.119417177E+01  0.000000000E+00  0.00000E+00  9.000E+00
      23     2     1     2     0     0 -3.796235497E-01 -9.354629844E-02 -1.073479866E+01  1.150493433E+01  4.120042093E+00  0.00000E+00  9.000E+00
      11     1     3     3     0     0  1.524757725E+00 -1.084734998E+00 -3.645769553E+00  4.097947295E+00  5.110000000E-04  0.00000E+00  9.000E+00
     -11     1     3     3     0     0 -1.904381275E+00  9.911886998E-01 -7.089029102E+00  7.406987036E+00  5.110000000E-04  0.00000E+00  9.000E+00
      -2     1     1     2     0   501 -4.421168109E-01  9.962357356E-01  6.497521104E+00  6.588302772E+00  0.000000000E+00  0.00000E+00  9.000E+00
      21     1     1     2   501   511  8.217403606E-01 -9.026894372E-01  1.285483442E+01  1.291266329E+01  2.384185791E-07  0.00000E+00  9.000E+00
#rwgt            1          14   49620090.883751124                3    14173992           0
<weights>
0.11145E+08
0.12200E+08
0.98445E+07
0.13030E+08
0.91799E+07
0.10441E+08
0.11958E+08
0.11154E+08
0.11131E+08
0.10847E+08
0.10855E+08
0.10990E+08
0.10980E+08
0.10868E+08
0.10862E+08
0.11125E+08
0.11325E+08
0.11448E+08
0.11418E+08
0.11397E+08
0.11439E+08
0.11446E+08
0.11487E+08
0.11335E+08
0.11331E+08
0.11426E+08
0.11009E+08
0.11443E+08
0.11210E+08
0.11420E+08
0.11447E+08
0.11108E+08
0.11275E+08
0.11197E+08
0.11115E+08
0.10983E+08
0.11324E+08
0.11017E+08
0.11167E+08
0.11151E+08
0.11133E+08
0.11244E+08
0.11041E+08
0.11460E+08
0.10854E+08
</weights>
</event>
<event>
      6  10001 -1.11453E+07  8.94427E-01 -1.00000E+00  5.86741E-01
      -4    -1     0     0     0   502  0.000000000E+00  0.000000000E+00  8.138438544E+01  8.138438544E+01  0.000000000E+00  0.00000E+00  9.000E+00
      21    -1     0     0   502   501  0.000000000E+00  0.000000000E+00 -1.362713245E-02  1.362713245E-02  0.000000000E+00  0.00000E+00  9.000E+00
      23     2     1     2     0     0 -1.967303386E-01 -2.705417012E-01  7.801278071E+01  7.802341494E+01  1.243957027E+00  0.00000E+00  9.000E+00
      11     1     3     3     0     0  3.355842649E-01 -2.313570860E-02  6.885276802E+00  6.893488882E+00  5.110000000E-04  0.00000E+00  9.000E+00
     -11     1     3     3     0     0 -5.323146034E-01 -2.474059926E-01  7.112750391E+01  7.112992606E+01  5.110000000E-04  0.00000E+00  9.000E+00
      -4     1     1     2     0   501  1.967303386E-01  2.705417012E-01  3.357977596E+00  3.374597631E+00  0.000000000E+00  0.00000E+00  9.000E+00
#rwgt            1           3  -2000027.9542481091                3    14225156           0
<weights>
-.11145E+08
-.12848E+08
-.92490E+07
-.15622E+08
-.74110E+07
-.91665E+07
-.13909E+08
-.11177E+08
-.11114E+08
-.10831E+08
-.10825E+08
-.10965E+08
-.11013E+08
-.10850E+08
-.10835E+08
-.11225E+08
-.11204E+08
-.11451E+08
-.11488E+08
-.11477E+08
-.11428E+08
-.11487E+08
-.11508E+08
-.11391E+08
-.11329E+08
-.11285E+08
-.11316E+08
-.11423E+08
-.11361E+08
-.11464E+08
-.11500E+08
-.11180E+08
-.11216E+08
-.11138E+08
-.11175E+08
-.11213E+08
-.11096E+08
-.11117E+08
-.11099E+08
-.11163E+08
-.11131E+08
-.11183E+08
-.11106E+08
-.11494E+08
-.10824E+08
</weights>
</event>
<event>
      7  10001  1.11453E+07  1.52083E+00 -1.00000E+00  4.13687E-01
       2    -1     0     0   501     0  0.000000000E+00  0.000000000E+00  6.370801923E+02  6.370801923E+02  0.000000000E+00  0.00000E+00  9.000E+00
      21    -1     0     0   511   502  0.000000000E+00  0.000000000E+00 -5.913377670E-02  5.913377670E-02  0.000000000E+00  0.00000E+00  9.000E+00
      23     2     1     2     0     0 -2.739884543E+00  1.893219150E+00  3.463376095E+02  3.463554600E+02  1.128560126E+00  0.00000E+00  9.000E+00
      11     1     3     3     0     0  6.540157845E-02  2.481513590E-01  3.197363466E+01  3.197466450E+01  5.110000000E-04  0.00000E+00  9.000E+00
     -11     1     3     3     0     0 -2.805286122E+00  1.645067791E+00  3.143639748E+02  3.143807955E+02  5.110000000E-04  0.00000E+00  9.000E+00
      21     1     1     2   501   502  4.143357160E+00 -1.307397816E+00  9.998531677E+01  1.000796696E+02  1.348699152E-06  0.00000E+00  9.000E+00
       2     1     1     2   511     0 -1.403472616E+00 -5.858213349E-01  1.906981322E+02  1.907041965E+02  0.000000000E+00  0.00000E+00  9.000E+00
#rwgt            2         249   10288199.416307928                3    14228485           0
<weights>
0.11145E+08
0.10554E+08
0.11599E+08
0.12827E+08
0.92936E+07
0.91702E+07
0.13910E+08
0.11172E+08
0.11119E+08
0.10819E+08
0.10807E+08
0.10960E+08
0.11003E+08
0.10836E+08
0.10817E+08
0.11227E+08
0.11214E+08
0.11469E+08
0.11510E+08
0.11498E+08
0.11445E+08
0.11509E+08
0.11528E+08
0.11415E+08
0.11331E+08
0.11290E+08
0.11341E+08
0.11442E+08
0.11377E+08
0.11488E+08
0.11522E+08
0.11186E+08
0.11217E+08
0.11137E+08
0.11179E+08
0.11209E+08
0.11101E+08
0.11140E+08
0.11076E+08
0.11168E+08
0.11126E+08
0.11186E+08
0.11103E+08
0.11512E+08
0.10808E+08
</weights>
</event>
<event>
      7  10001  1.11453E+07  2.66953E+00 -1.00000E+00  3.07633E-01
       1    -1     0     0   502     0  0.000000000E+00  0.000000000E+00  2.508886709E+01  2.508886709E+01  0.000000000E+00  0.00000E+00  9.000E+00
       4    -1     0     0   501     0  0.000000000E+00  0.000000000E+00 -4.105191989E+00  4.105191989E+00  0.000000000E+00  0.00000E+00  9.000E+00
      23     2     1     2     0     0 -3.521457926E+00  2.745938857E+00  3.535428247E+00  6.149033665E+00  2.317437377E+00  0.00000E+00  9.000E+00
      11     1     3     3     0     0 -2.397585280E+00  9.537186612E-01  8.212963847E-01  2.707863082E+00  5.110000000E-04  0.00000E+00  9.000E+00
     -11     1     3     3     0     0 -1.123872645E+00  1.792220196E+00  2.714131862E+00  3.441170583E+00  5.110000000E-04  0.00000E+00  9.000E+00
       4     1     1     2   502     0  3.846505038E+00 -9.627289535E-02 -1.335228162E+00  4.072800477E+00  0.000000000E+00  0.00000E+00  9.000E+00
       1     1     1     2   501     0 -3.250471127E-01 -2.649665962E+00  1.878347502E+01  1.897222494E+01  0.000000000E+00  0.00000E+00  9.000E+00
#rwgt            1          19   284103.04042403609                3    14229705           0
<weights>
0.11145E+08
0.12436E+08
0.98357E+07
0.12425E+08
0.96162E+07
0.10983E+08
0.11128E+08
0.11215E+08
0.11071E+08
0.10772E+08
0.10762E+08
0.10923E+08
0.11003E+08
0.10788E+08
0.10773E+08
0.11234E+08
0.11241E+08
0.11528E+08
0.11533E+08
0.11532E+08
0.11497E+08
0.11559E+08
0.11586E+08
0.11352E+08
0.11424E+08
0.11408E+08
0.11057E+08
0.11515E+08
0.11367E+08
0.11532E+08
0.11571E+08
0.11192E+08
0.11225E+08
0.11128E+08
0.11190E+08
0.11271E+08
0.11039E+08
0.11114E+08
0.11060E+08
0.11176E+08
0.11120E+08
0.11174E+08
0.11116E+08
0.11564E+08
0.10761E+08
</weights>
</event>
<event>
      6  10001 -1.11453E+07  8.94427E-01 -1.00000E+00  5.84038E-01
      21    -1     0     0   502   501  0.000000000E+00  0.000000000E+00  1.021656574E+02  1.021656574E+02  0.000000000E+00  0.00000E+00  9.000E+00
      -4    -1     0     0     0   502  0.000000000E+00  0.000000000E+00 -2.166906696E-02  2.166906696E-02  0.000000000E+00  0.00000E+00  9.000E+00
      23     2     1     2     0     0 -3.295047839E-01 -2.715707459E-01  6.476077178E+01  6.480167141E+01  2.262019477E+00  0.00000E+00  9.000E+00
      11     1     3     3     0     0 -6.448152452E-01  4.060143789E-01  8.051943261E+00  8.087918454E+00  5.110000000E-04  0.00000E+00  9.000E+00
     -11     1     3     3     0     0  3.153104613E-01 -6.775851248E-01  5.670882852E+01  5.671375295E+01  5.110000000E-04  0.00000E+00  9.000E+00
      -4     1     1     2     0   501  3.295047839E-01  2.715707459E-01  3.738321652E+01  3.738565502E+01  0.000000000E+00  0.00000E+00  9.000E+00
#rwgt            1          12  -987677.27764795488                3    14240948           0
<weights>
-.11145E+08
-.12462E+08
-.95653E+07
-.15160E+08
-.76647E+07
-.91619E+07
-.13909E+08
-.11168E+08
-.11123E+08
-.10810E+08
-.10794E+08
-.10956E+08
-.10996E+08
-.10825E+08
-.10805E+08
-.11228E+08
-.11221E+08
-.11481E+08
-.11525E+08
-.11512E+08
-.11456E+08
-.11525E+08
-.11541E+08
-.11434E+08
-.11332E+08
-.11294E+08
-.11369E+08
-.11456E+08
-.11388E+08
-.11504E+08
-.11537E+08
-.11190E+08
-.11217E+08
-.11136E+08
-.11182E+08
-.11205E+08
-.11105E+08
-.11156E+08
-.11059E+08
-.11173E+08
-.11122E+08
-.11188E+08
-.11101E+08
-.11525E+08
-.10797E+08
</weights>
</event>
<event>
      7  10001  1.11453E+07  2.82061E+00 -1.00000E+00  3.00194E-01
      21    -1     0     0   502   501  0.000000000E+00  0.000000000E+00  8.959523032E-01  8.959523032E-01  0.000000000E+00  0.00000E+00  9.000E+00
      -2    -1     0     0     0   502  0.000000000E+00  0.000000000E+00 -7.261343877E+00  7.261343877E+00  0.000000000E+00  0.00000E+00  9.000E+00
      23     2     1     2     0     0  3.928567451E-01  5.228377536E-02 -6.200984806E+00  6.315415030E+00  1.129240641E+00  0.00000E+00  9.000E+00
      11     1     3     3     0     0 -2.258485219E-01 -3.580585571E-01 -1.606865280E+00  1.661694850E+00  5.110000000E-04  0.00000E+00  9.000E+00
     -11     1     3     3     0     0  6.187052670E-01  4.103423325E-01 -4.594119526E+00  4.653720180E+00  5.110000000E-04  0.00000E+00  9.000E+00
      -2     1     1     2     0   511  2.141862055E-01  6.817558878E-01 -4.536018709E-01  8.464168468E-01  0.000000000E+00  0.00000E+00  9.000E+00
      21     1     1     2   511   501 -6.070429506E-01 -7.340396631E-01  2.891951032E-01  9.954643031E-01  1.005828381E-07  0.00000E+00  9.000E+00
#rwgt            1          14   2001487.5844022073                3    14245087           0
<weights>
0.11140E+08
0.13364E+08
0.96358E+07
0.11151E+08
0.10772E+08
0.12506E+08
0.88784E+07
0.11071E+08
0.11201E+08
0.10786E+08
0.10751E+08
0.10969E+08
0.10912E+08
0.10789E+08
0.10764E+08
0.11121E+08
0.11389E+08
0.11547E+08
0.11502E+08
0.11480E+08
0.11530E+08
0.11557E+08
0.11579E+08
0.11431E+08
0.11337E+08
0.11482E+08
0.10994E+08
0.11552E+08
0.11265E+08
0.11545E+08
0.11552E+08
0.11123E+08
0.11284E+08
0.11177E+08
0.11137E+08
0.10890E+08
0.11416E+08
0.11128E+08
0.11013E+08
0.11176E+08
0.11101E+08
0.11260E+08
0.11013E+08
0.11550E+08
0.10767E+08
</weights>
</event>
<event>
      6  10001  1.11453E+07  8.94427E-01 -1.00000E+00  6.06503E-01
      -3    -1     0     0     0   502  0.000000000E+00  0.000000000E+00  1.352967924E+00  1.352967924E+00  0.000000000E+00  0.00000E+00  9.000E+00
       3    -1     0     0   501     0  0.000000000E+00  0.000000000E+00 -4.795301891E+00  4.795301891E+00  0.000000000E+00  0.00000E+00  9.000E+00
      23     2     1     2     0     0  1.809894499E-01 -2.241969801E-01 -4.602892245E+00  4.952478451E+00  1.804828060E+00  0.00000E+00  9.000E+00
      11     1     3     3     0     0  9.285423482E-01  2.240924797E-01 -2.332596447E+00  2.520598100E+00  5.110000000E-04  0.00000E+00  9.000E+00
     -11     1     3     3     0     0 -7.475528983E-01 -4.482894598E-01 -2.270295798E+00  2.431880352E+00  5.110000000E-04  0.00000E+00  9.000E+00
      21     1     1     2   501   502 -1.809894499E-01  2.241969801E-01  1.160558278E+00  1.195791363E+00  7.300048300E-08  0.00000E+00  9.000E+00
#rwgt            1           6   237689.45391733939                3    14263856           0
<weights>
0.11145E+08
0.12492E+08
0.97259E+07
0.13015E+08
0.90822E+07
0.10573E+08
0.11756E+08
0.11195E+08
0.11090E+08
0.10789E+08
0.10818E+08
0.11071E+08
0.10861E+08
0.10816E+08
0.10810E+08
0.11385E+08
0.10894E+08
0.11230E+08
0.11932E+08
0.11880E+08
0.11215E+08
0.11485E+08
0.11601E+08
0.12104E+08
0.10801E+08
0.10104E+08
0.13712E+08
0.11057E+08
0.11940E+08
0.11452E+08
0.11570E+08
0.11242E+08
0.11163E+08
0.11160E+08
0.11158E+08
0.11257E+08
0.11049E+08
0.11133E+08
0.11042E+08
0.11188E+08
0.11105E+08
0.11220E+08
0.11066E+08
0.11525E+08
0.10797E+08
</weights>
</event>
<event>
      7  10001  1.11453E+07  1.17471E+00 -1.00000E+00  5.03977E-01
      -2    -1     0     0     0   502  0.000000000E+00  0.000000000E+00  4.912430949E+00  4.912430949E+00  0.000000000E+00  0.00000E+00  9.000E+00
       2    -1     0     0   501     0  0.000000000E+00  0.000000000E+00 -1.632445871E+00  1.632445871E+00  0.000000000E+00  0.00000E+00  9.000E+00
      23     2     1     2     0     0 -2.762555903E-01  3.173515011E-01  3.505820212E+00  5.258680441E+00  3.896911020E+00  0.00000E+00  9.000E+00
      11     1     3     3     0     0 -1.817845505E+00 -1.049270527E-01  5.563763737E-01  1.903976601E+00  5.110000000E-04  0.00000E+00  9.000E+00
     -11     1     3     3     0     0  1.541589914E+00  4.222785538E-01  2.949443838E+00  3.354703840E+00  5.110000000E-04  0.00000E+00  9.000E+00
      21     1     1     2   501   511 -5.056906690E-02 -7.160096504E-01  1.332775348E-02  7.179169026E-01  4.187101644E-08  0.00000E+00  9.000E+00
      21     1     1     2   511   502  3.268246572E-01  3.986581493E-01 -2.391628870E-01  5.682794762E-01  3.734591912E-08  0.00000E+00  9.000E+00
#rwgt            1           8   208609.24739082649                3    14267024           0
<weights>
0.11145E+08
0.15058E+08
0.78359E+07
0.78355E+07
0.12774E+08
0.16069E+08
0.33193E+07
0.10666E+08
0.11659E+08
0.10746E+08
0.10616E+08
0.11008E+08
0.10782E+08
0.10719E+08
0.10643E+08
0.11047E+08
0.11607E+08
0.11648E+08
0.11672E+08
0.11645E+08
0.11624E+08
0.11741E+08
0.11666E+08
0.11662E+08
0.11274E+08
0.11521E+08
0.11075E+08
0.11799E+08
0.11273E+08
0.11769E+08
0.11692E+08
0.11169E+08
0.11299E+08
0.11110E+08
0.11255E+08
0.10599E+08
0.11755E+08
0.11410E+08
0.10788E+08
0.11208E+08
0.11081E+08
0.11321E+08
0.10959E+08
0.11672E+08
0.10673E+08
</weights>
</event>
<event>
      6  10001 -1.11453E+07  8.94427E-01 -1.00000E+00  2.42416E-01
      21    -1     0     0   502   501  0.000000000E+00  0.000000000E+00  3.458171529E-02  3.458171529E-02  0.000000000E+00  0.00000E+00  9.000E+00
      -5    -1     0     0     0   502  0.000000000E+00  0.000000000E+00 -2.137531680E+01  2.137531680E+01  0.000000000E+00  0.00000E+00  9.000E+00
      23     2     1     2     0     0 -2.326655206E-01  2.059712404E-01 -1.651536686E+01  1.657453546E+01  1.364304114E+00  0.00000E+00  9.000E+00
      11     1     3     3     0     0  2.206092541E-02  7.751502506E-01 -9.293420090E+00  9.325717228E+00  5.110000000E-04  0.00000E+00  9.000E+00
     -11     1     3     3     0     0 -2.547264460E-01 -5.691790102E-01 -7.221946773E+00  7.248818232E+00  5.110000000E-04  0.00000E+00  9.000E+00
      -5     1     1     2     0   501  2.326655206E-01 -2.059712404E-01 -4.825368221E+00  4.835363054E+00  0.000000000E+00  0.00000E+00  9.000E+00
#rwgt            1          11  -125531.58658355595                3    14270625           0
<weights>
-.11145E+08
-.92681E+07
-.12022E+08
-.15225E+08
-.77619E+07
-.68402E+07
-.17487E+08
-.11187E+08
-.11103E+08
-.11069E+08
-.11115E+08
-.11052E+08
-.11189E+08
-.11114E+08
-.11122E+08
-.11175E+08
-.11084E+08
-.11166E+08
-.11140E+08
-.11136E+08
-.11167E+08
-.11155E+08
-.11161E+08
-.11121E+08
-.11195E+08
-.11170E+08
-.11102E+08
-.11141E+08
-.11124E+08
-.11122E+08
-.11158E+08
-.11111E+08
-.11184E+08
-.11151E+08
-.11136E+08
-.11228E+08
-.11069E+08
-.10939E+08
-.11371E+08
-.11078E+08
-.11207E+08
-.11131E+08
-.11161E+08
-.11184E+08
-.11098E+08
</weights>
</event>
<event>
      6  10001 -1.11453E+07  8.94427E-01 -1.00000E+00  3.01390E-01
       1    -1     0     0   501     0  0.000000000E+00  0.000000000E+00  2.059117891E-02  2.059117891E-02  0.000000000E+00  0.00000E+00  9.000E+00
      21    -1     0     0   502   501  0.000000000E+00  0.000000000E+00 -1.308567172E+02  1.308567172E+02  0.000000000E+00  0.00000E+00  9.000E+00
      23     2     1     2     0     0 -7.122224445E-01 -9.933420508E-01 -3.887505685E+01  3.890811662E+01  1.038029276E+00  0.00000E+00  9.000E+00
      11     1     3     3     0     0  1.030129891E-01 -1.840347585E-01 -1.432490192E+00  1.447932622E+00  5.110000000E-04  0.00000E+00  9.000E+00
     -11     1     3     3     0     0 -8.152354336E-01 -8.093072923E-01 -3.744256666E+01  3.746018400E+01  5.110000000E-04  0.00000E+00  9.000E+00
       1     1     1     2   502     0  7.122224445E-01  9.933420508E-01 -9.196106916E+01  9.196919175E+01  0.000000000E+00  0.00000E+00  9.000E+00
#rwgt            1          22  -122317.50826738287                3    14272287           0
<weights>
-.11145E+08
-.12223E+08
-.97991E+07
-.14855E+08
-.78516E+07
-.91702E+07
-.13910E+08
-.11131E+08
-.11158E+08
-.11253E+08
-.11254E+08
-.11098E+08
-.11318E+08
-.11294E+08
-.11280E+08
-.11128E+08
-.11058E+08
-.11010E+08
-.10942E+08
-.10939E+08
-.11026E+08
-.10997E+08
-.10928E+08
-.11096E+08
-.10989E+08
-.11047E+08
-.11163E+08
-.11027E+08
-.11012E+08
-.10987E+08
-.10982E+08
-.11117E+08
-.11126E+08
-.11132E+08
-.11150E+08
-.11180E+08
-.11108E+08
-.11032E+08
-.11322E+08
-.11031E+08
-.11251E+08
-.11089E+08
-.11205E+08
-.11004E+08
-.11262E+08
</weights>
</event>
<event>
      7  10001  1.11453E+07  2.15594E+00 -1.00000E+00  3.40571E-01
      21    -1     0     0   502   501  0.000000000E+00  0.000000000E+00  2.460577623E+00  2.460577623E+00  0.000000000E+00  0.00000E+00  9.000E+00
       3    -1     0     0   501     0  0.000000000E+00  0.000000000E+00 -1.314075249E+00  1.314075249E+00  0.000000000E+00  0.00000E+00  9.000E+00
      23     2     1     2     0     0 -1.108814973E-01  7.972766330E-01  8.191435592E-01  1.579873178E+00  1.084923201E+00  0.00000E+00  9.000E+00
      11     1     3     3     0     0 -2.353357443E-02  1.049606695E+00  4.973377599E-01  1.161711303E+00  5.110000000E-04  0.00000E+00  9.000E+00
     -11     1     3     3     0     0 -8.734792284E-02 -2.523300620E-01  3.218057993E-01  4.181618746E-01  5.110000000E-04  0.00000E+00  9.000E+00
       3     1     1     2   511     0  7.317408360E-01 -4.353715160E-01  9.270918292E-01  1.258766169E+00  0.000000000E+00  0.00000E+00  9.000E+00
      21     1     1     2   502   511 -6.208593388E-01 -3.619051170E-01 -5.997330141E-01  9.360135258E-01  8.229435248E-08  0.00000E+00  9.000E+00
#rwgt            1          18   111399.95162751075                3    14272557           0
<weights>
0.11145E+08
0.13720E+08
0.88664E+07
0.11127E+08
0.10355E+08
0.12744E+08
0.84244E+07
0.11182E+08
0.11103E+08
0.10757E+08
0.10746E+08
0.11035E+08
0.10853E+08
0.10769E+08
0.10751E+08
0.11262E+08
0.11106E+08
0.11216E+08
0.12254E+08
0.12115E+08
0.11223E+08
0.11565E+08
0.11660E+08
0.12668E+08
0.10722E+08
0.10275E+08
0.15461E+08
0.11184E+08
0.11953E+08
0.11549E+08
0.11646E+08
0.11264E+08
0.11166E+08
0.11147E+08
0.11179E+08
0.11232E+08
0.11077E+08
0.11249E+08
0.10949E+08
0.11208E+08
0.11089E+08
0.11224E+08
0.11063E+08
0.11589E+08
0.10742E+08
</weights>
</event>
<event>
      6  10001  1.11453E+07  8.94427E-01 -1.00000E+00  6.06360E-01
       2    -1     0     0   501     0  0.000000000E+00  0.000000000E+00  5.580006850E+02  5.580006850E+02  0.000000000E+00  0.00000E+00  9.000E+00
      -2    -1     0     0     0   502  0.000000000E+00  0.000000000E+00 -7.560991120E-02  7.560991120E-02  0.000000000E+00  0.00000E+00  9.000E+00
      23     2     1     2     0     0 -5.721245180E-02  9.383784997E-01  1.059479612E+01  1.074520855E+01  1.525114542E+00  0.00000E+00  9.000E+00
      11     1     3     3     0     0 -8.571449131E-02  1.344744146E+00  7.098454504E+00  7.225215596E+00  5.110000000E-04  0.00000E+00  9.000E+00
     -11     1     3     3     0     0  2.850203951E-02 -4.063656462E-01  3.496341620E+00  3.519992953E+00  5.110000000E-04  0.00000E+00  9.000E+00
      21     1     1     2   501   502  5.721245180E-02 -9.383784997E-01  5.473302790E+02  5.473310864E+02  7.629394531E-06  0.00000E+00  9.000E+00
#rwgt            1          23   5274700.0601404132                3    14277500           0
<weights>
0.11145E+08
0.11480E+08
0.10755E+08
0.12330E+08
0.97987E+07
0.10322E+08
0.12142E+08
0.10964E+08
0.11395E+08
0.10805E+08
0.10764E+08
0.10968E+08
0.10959E+08
0.10813E+08
0.10779E+08
0.11195E+08
0.11286E+08
0.11515E+08
0.11535E+08
0.11516E+08
0.11493E+08
0.11559E+08
0.11556E+08
0.11506E+08
0.11286E+08
0.11330E+08
0.11338E+08
0.11504E+08
0.11374E+08
0.11548E+08
0.11558E+08
0.11174E+08
0.11244E+08
0.11135E+08
0.11189E+08
0.11058E+08
0.11271E+08
0.11201E+08
0.11020E+08
0.11178E+08
0.11116E+08
0.11212E+08
0.11075E+08
0.11546E+08
0.10779E+08
</weights>
</event>
<event>
      7  10001  1.11453E+07  9.30208E+00 -1.00000E+00  1.98906E-01
       3    -1     0     0   501     0  0.000000000E+00  0.000000000E+00  3.149225849E+00  3.149225849E+00  0.000000000E+00  0.00000E+00  9.000E+00
      21    -1     0     0   502   501  0.000000000E+00  0.000000000E+00 -2.319543665E+01  2.319543665E+01  0.000000000E+00  0.00000E+00  9.000E+00
      23     2     1     2     0     0 -1.256984971E+00  4.674227572E-01  1.810114949E+00  2.598350163E+00  1.294763371E+00  0.00000E+00  9.000E+00
      11     1     3     3     0     0 -3.490676186E-02 -2.605596982E-01 -3.861019727E-02  2.657081986E-01  5.110000000E-04  0.00000E+00  9.000E+00
     -11     1     3     3     0     0 -1.222078210E+00  7.279824554E-01  1.848725146E+00  2.332641964E+00  5.110000000E-04  0.00000E+00  9.000E+00
       3     1     1     2   511     0  1.258126516E+00  4.315549728E+00 -1.100152433E+01  1.188445999E+01  0.000000000E+00  0.00000E+00  9.000E+00
      21     1     1     2   502   511 -1.141544594E-03 -4.782972485E+00 -1.085480142E+01  1.186185234E+01  1.400392070E-06  0.00000E+00  9.000E+00
#rwgt            1          26   1878600.1209128394                3    14282631           0
<weights>
0.11145E+08
0.11324E+08
0.10838E+08
0.12481E+08
0.96384E+07
0.10092E+08
0.12494E+08
0.11235E+08
0.11054E+08
0.10847E+08
0.10902E+08
0.10959E+08
0.11066E+08
0.10890E+08
0.10903E+08
0.11217E+08
0.11164E+08
0.11380E+08
0.11405E+08
0.11401E+08
0.11363E+08
0.11390E+08
0.11451E+08
0.11220E+08
0.11395E+08
0.11336E+08
0.11050E+08
0.11351E+08
0.11260E+08
0.11341E+08
0.11406E+08
0.11132E+08
0.11237E+08
0.11153E+08
0.11148E+08
0.11289E+08
0.11019E+08
0.10901E+08
0.11306E+08
0.11125E+08
0.11165E+08
0.11159E+08
0.11131E+08
0.11429E+08
0.10877E+08
</weights>
</event>
<event>
      7  10001 -1.11453E+07  9.94403E-01 -1.00000E+00  5.64754E-01
      -1    -1     0     0     0   502  0.000000000E+00  0.000000000E+00  1.001047268E+01  1.001047268E+01  0.000000000E+00  0.00000E+00  9.000E+00
      21    -1     0     0   502   512  0.000000000E+00  0.000000000E+00 -1.490487084E+02  1.490487084E+02  0.000000000E+00  0.00000E+00  9.000E+00
      23     2     1     2     0     0  5.866189790E-01 -4.222745674E-01  9.036960129E+00  1.031654887E+01  4.923626153E+00  0.00000E+00  9.000E+00
      11     1     3     3     0     0  1.599905740E+00 -2.281538704E+00  5.985628013E+00  6.602488941E+00  5.110000000E-04  0.00000E+00  9.000E+00
     -11     1     3     3     0     0 -1.013286761E+00  1.859264136E+00  3.051332115E+00  3.714059925E+00  5.110000000E-04  0.00000E+00  9.000E+00
      -1     1     1     2     0   501  4.887956852E-02 -3.425648480E-01  2.418998259E-01  4.222030472E-01  0.000000000E+00  0.00000E+00  9.000E+00
      21     1     1     2   501   512 -6.354985475E-01  7.648394154E-01 -1.483170957E+02  1.483204292E+02  0.000000000E+00  0.00000E+00  9.000E+00
#rwgt            1           9  -70156.942163135871                3    14287758           0
<weights>
-.11145E+08
-.76988E+07
-.13578E+08
-.18076E+08
-.53846E+07
-.33611E+07
-.22827E+08
-.11213E+08
-.11078E+08
-.11162E+08
-.11251E+08
-.11110E+08
-.11237E+08
-.11202E+08
-.11245E+08
-.11150E+08
-.11036E+08
-.11029E+08
-.11034E+08
-.11036E+08
-.11039E+08
-.10993E+08
-.11063E+08
-.10954E+08
-.11194E+08
-.11118E+08
-.10962E+08
-.10995E+08
-.11024E+08
-.10950E+08
-.11006E+08
-.11063E+08
-.11185E+08
-.11167E+08
-.11104E+08
-.11237E+08
-.11054E+08
-.10777E+08
-.11487E+08
-.11055E+08
-.11225E+08
-.11119E+08
-.11173E+08
-.11052E+08
-.11218E+08
</weights>
</event>
<event>
      7  10001  1.11453E+07  8.94427E-01 -1.00000E+00  6.07649E-01
      21    -1     0     0   511   502  0.000000000E+00  0.000000000E+00  1.487423738E-01  1.487423738E-01  0.000000000E+00  0.00000E+00  9.000E+00
       2    -1     0     0   501     0  0.000000000E+00  0.000000000E+00 -3.612814749E+02  3.612814749E+02  0.000000000E+00  0.00000E+00  9.000E+00
      23     2     1     2     0     0 -1.231407970E-01 -3.067967551E-01 -3.562791900E+02  3.562807533E+02  1.002313519E+00  0.00000E+00  9.000E+00
      11     1     3     3     0     0 -2.487902418E-01 -6.443468377E-01 -2.493580298E+02  2.493589865E+02  5.110000000E-04  0.00000E+00  9.000E+00
     -11     1     3     3     0     0  1.256494448E-01  3.375500826E-01 -1.069211601E+02  1.069217668E+02  5.110000000E-04  0.00000E+00  9.000E+00
      21     1     1     2   501   502  9.182055395E-02  2.054202235E-01  6.151207639E-02  2.332642663E-01  9.420241523E-07  0.00000E+00  9.000E+00
       2     1     1     2   511     0  3.132024300E-02  1.013765315E-01 -4.915054655E+00  4.916199794E+00  0.000000000E+00  0.00000E+00  9.000E+00
#rwgt            2         190   324592997.59720671                3    14305278           0
<weights>
0.11145E+08
0.10538E+08
0.11675E+08
0.12807E+08
0.93544E+07
0.91702E+07
0.13910E+08
0.11128E+08
0.11162E+08
0.11168E+08
0.11157E+08
0.11023E+08
0.11288E+08
0.11161E+08
0.11158E+08
0.11326E+08
0.10873E+08
0.11398E+08
0.10766E+08
0.10717E+08
0.11426E+08
0.11105E+08
0.11164E+08
0.11093E+08
0.11153E+08
0.11262E+08
0.11067E+08
0.10842E+08
0.11455E+08
0.11079E+08
0.11173E+08
0.11023E+08
0.11264E+08
0.11414E+08
0.10807E+08
0.11114E+08
0.11173E+08
0.11159E+08
0.11135E+08
0.11223E+08
0.11074E+08
0.11143E+08
0.11147E+08
0.11127E+08
0.11163E+08
</weights>
</event>
<event>
      7  10001  1.11453E+07  1.44114E+00 -1.00000E+00  4.39019E-01
      -1    -1     0     0     0   502  0.000000000E+00  0.000000000E+00  4.978446405E+00  4.978446405E+00  0.000000000E+00  0.00000E+00  9.000E+00
      21    -1     0     0   502   501  0.000000000E+00  0.000000000E+00 -5.181539327E-01  5.181539327E-01  0.000000000E+00  0.00000E+00  9.000E+00
      23     2     1     2     0     0  9.865207293E-01 -5.444803496E-01  2.067106089E+00  2.570934747E+00  1.033003335E+00  0.00000E+00  9.000E+00
      11     1     3     3     0     0  7.968144785E-01 -2.946356648E-02  5.806083332E-01  9.863507046E-01  5.110000000E-04  0.00000E+00  9.000E+00
     -11     1     3     3     0     0  1.897062508E-01 -5.150167831E-01  1.486497755E+00  1.584584042E+00  5.110000000E-04  0.00000E+00  9.000E+00
      -1     1     1     2     0   511 -4.148596094E-01  1.199655715E-02  2.015741946E+00  2.058025269E+00  0.000000000E+00  0.00000E+00  9.000E+00
      21     1     1     2   511   501 -5.716611199E-01  5.324837924E-01  3.774444372E-01  8.676403220E-01  2.414264045E-08  0.00000E+00  9.000E+00
#rwgt            2         131   1010306.9357209405                3    14307201           0
<weights>
0.11145E+08
0.11628E+08
0.10375E+08
0.14132E+08
0.83127E+07
0.91702E+07
0.13910E+08
0.11192E+08
0.11096E+08
0.10841E+08
0.10841E+08
0.10967E+08
0.11024E+08
0.10862E+08
0.10850E+08
0.11226E+08
0.11193E+08
0.11440E+08
0.11460E+08
0.11453E+08
0.11417E+08
0.11469E+08
0.11492E+08
0.11346E+08
0.11338E+08
0.11289E+08
0.11203E+08
0.11409E+08
0.11343E+08
0.11444E+08
0.11482E+08
0.11176E+08
0.11215E+08
0.11139E+08
0.11173E+08
0.11225E+08
0.11082E+08
0.11098E+08
0.11119E+08
0.11158E+08
0.11135E+08
0.11179E+08
0.11111E+08
0.11478E+08
0.10838E+08
</weights>
</event>
<event>
      6  10001  1.11453E+07  8.94427E-01 -1.00000E+00  6.01958E-01
      21    -1     0     0   502   501  0.000000000E+00  0.000000000E+00  5.269644011E+00  5.269644011E+00  0.000000000E+00  0.00000E+00  9.000E+00
       2    -1     0     0   501     0  0.000000000E+00  0.000000000E+00 -9.874629722E-01  9.874629722E-01  0.000000000E+00  0.00000E+00  9.000E+00
      23     2     1     2     0     0 -5.351218733E-02 -2.451663646E-01 -6.977255166E-01  1.270882018E+00  1.032157986E+00  0.00000E+00  9.000E+00
      11     1     3     3     0     0 -2.022520937E-01 -4.789583729E-01 -8.176502473E-01  9.689474807E-01  5.110000000E-04  0.00000E+00  9.000E+00
     -11     1     3     3     0     0  1.487399064E-01  2.337920083E-01  1.199247307E-01  3.019345376E-01  5.110000000E-04  0.00000E+00  9.000E+00
       2     1     1     2   502     0  5.351218733E-02  2.451663646E-01  4.979906556E+00  4.986224965E+00  0.000000000E+00  0.00000E+00  9.000E+00
#rwgt            1          17   777941.76797087514                3    14307395           0
<weights>
0.11145E+08
0.13260E+08
0.90487E+07
0.12779E+08
0.93038E+07
0.11367E+08
0.10538E+08
0.10903E+08
0.11415E+08
0.10814E+08
0.10757E+08
0.10993E+08
0.10922E+08
0.10815E+08
0.10774E+08
0.11136E+08
0.11381E+08
0.11520E+08
0.11527E+08
0.11511E+08
0.11499E+08
0.11571E+08
0.11548E+08
0.11477E+08
0.11293E+08
0.11398E+08
0.11113E+08
0.11570E+08
0.11289E+08
0.11569E+08
0.11553E+08
0.11161E+08
0.11259E+08
0.11128E+08
0.11206E+08
0.10917E+08
0.11416E+08
0.11223E+08
0.10992E+08
0.11174E+08
0.11116E+08
0.11243E+08
0.11042E+08
0.11546E+08
0.10781E+08
</weights>
</event>
<event>
      6  10001  1.11453E+07  8.94427E-01 -1.00000E+00  6.06539E-01
      21    -1     0     0   502   501  0.000000000E+00  0.000000000E+00  2.185048724E+00  2.185048724E+00  0.000000000E+00  0.00000E+00  9.000E+00
      -2    -1     0     0     0   502  0.000000000E+00  0.000000000E+00 -5.195863617E+00  5.195863617E+00  0.000000000E+00  0.00000E+00  9.000E+00
      23     2     1     2     0     0 -2.651551725E-01 -2.704712632E-02 -5.120439955E+00  5.254517102E+00  1.148915065E+00  0.00000E+00  9.000E+00
      11     1     3     3     0     0  3.198024679E-01 -3.128924223E-01 -1.206288048E+00  1.286587114E+00  5.110000000E-04  0.00000E+00  9.000E+00
     -11     1     3     3     0     0 -5.849576404E-01  2.858452960E-01 -3.914151907E+00  3.967929987E+00  5.110000000E-04  0.00000E+00  9.000E+00
      -2     1     1     2     0   501  2.651551725E-01  2.704712632E-02  2.109625062E+00  2.126395239E+00  0.000000000E+00  0.00000E+00  9.000E+00
#rwgt            1          14   13528600.320693230                3    14328657           0
<weights>
0.11145E+08
0.13145E+08
0.90658E+07
0.12987E+08
0.91573E+07
0.11165E+08
0.10848E+08
0.11054E+08
0.11232E+08
0.10803E+08
0.10767E+08
0.10977E+08
0.10930E+08
0.10808E+08
0.10781E+08
0.11134E+08
0.11375E+08
0.11539E+08
0.11492E+08
0.11471E+08
0.11522E+08
0.11551E+08
0.11565E+08
0.11431E+08
0.11330E+08
0.11467E+08
0.11011E+08
0.11543E+08
0.11274E+08
0.11539E+08
0.11544E+08
0.11132E+08
0.11282E+08
0.11173E+08
0.11150E+08
0.10915E+08
0.11404E+08
0.11142E+08
0.11027E+08
0.11177E+08
0.11111E+08
0.11255E+08
0.11029E+08
0.11542E+08
0.10783E+08
</weights>
</event>
<event>
      7  10001  1.11453E+07  2.56488E+00 -1.00000E+00  3.13282E-01
       2    -1     0     0   501     0  0.000000000E+00  0.000000000E+00  6.492340360E-02  6.492340360E-02  0.000000000E+00  0.00000E+00  9.000E+00
      -2    -1     0     0     0   502  0.000000000E+00  0.000000000E+00 -1.723010885E+02  1.723010885E+02  0.000000000E+00  0.00000E+00  9.000E+00
      23     2     1     2     0     0 -1.755051205E-01  4.560289309E-01 -1.297259850E+02  1.297968783E+02  4.261416155E+00  0.00000E+00  9.000E+00
      11     1     3     3     0     0  9.306871050E-01 -1.652174746E+00 -6.243082408E+01  6.245961620E+01  5.110000000E-04  0.00000E+00  9.000E+00
     -11     1     3     3     0     0 -1.106192225E+00  2.108203677E+00 -6.729516092E+01  6.733726210E+01  5.110000000E-04  0.00000E+00  9.000E+00
      21     1     1     2   501   511  8.706085342E-01  4.624522494E-01 -2.608109832E+01  2.609972243E+01  3.371747881E-07  0.00000E+00  9.000E+00
      21     1     1     2   511   502 -6.951034138E-01 -9.184811803E-01 -1.642908181E+01  1.646941120E+01  3.371747881E-07  0.00000E+00  9.000E+00
#rwgt            1          23   363579.95064998174                3    14368907           0
<weights>
0.11145E+08
0.11890E+08
0.10360E+08
0.12266E+08
0.98616E+07
0.10704E+08
0.11555E+08
0.11118E+08
0.11167E+08
0.11226E+08
0.11247E+08
0.11112E+08
0.11180E+08
0.11256E+08
0.11252E+08
0.11037E+08
0.11200E+08
0.11109E+08
0.10928E+08
0.10899E+08
0.11131E+08
0.11024E+08
0.11013E+08
0.11129E+08
0.11025E+08
0.11059E+08
0.11149E+08
0.11031E+08
0.10969E+08
0.11030E+08
0.11040E+08
0.11193E+08
0.11057E+08
0.11334E+08
0.10959E+08
0.11119E+08
0.11145E+08
0.11189E+08
0.11107E+08
0.11119E+08
0.11150E+08
0.11331E+08
0.10945E+08
0.11026E+08
0.11248E+08
</weights>
</event>
<event>
      6  10001 -1.11453E+07  8.94427E-01 -1.00000E+00  4.83983E-01
      21    -1     0     0   502   501  0.000000000E+00  0.000000000E+00  2.421831785E-02  2.421831785E-02  0.000000000E+00  0.00000E+00  9.000E+00
       2    -1     0     0   501     0  0.000000000E+00  0.000000000E+00 -3.917230167E+01  3.917230167E+01  0.000000000E+00  0.00000E+00  9.000E+00
      23     2     1     2     0     0 -5.722337915E-01  2.220650759E-01 -3.091397008E+01  3.093956015E+01  1.098212942E+00  0.00000E+00  9.000E+00
      11     1     3     3     0     0 -5.015438697E-02  5.562100722E-01 -2.016550044E+01  2.017323210E+01  5.110000000E-04  0.00000E+00  9.000E+00
     -11     1     3     3     0     0 -5.220794045E-01 -3.341449963E-01 -1.074846964E+01  1.076632805E+01  5.110000000E-04  0.00000E+00  9.000E+00
       2     1     1     2   502     0  5.722337915E-01 -2.220650759E-01 -8.234113273E+00  8.256959841E+00  0.000000000E+00  0.00000E+00  9.000E+00
#rwgt            1          17  -12335491.861793304                3    14371581           0
<weights>
-.11145E+08
-.12761E+08
-.94161E+07
-.15509E+08
-.75447E+07
-.91702E+07
-.13910E+08
-.11194E+08
-.11097E+08
-.11042E+08
-.11086E+08
-.11136E+08
-.11043E+08
-.11076E+08
-.11085E+08
-.11089E+08
-.11228E+08
-.11098E+08
-.11342E+08
-.11353E+08
-.11088E+08
-.11206E+08
-.11207E+08
-.11238E+08
-.11142E+08
-.11147E+08
-.11141E+08
-.11341E+08
-.10942E+08
-.11200E+08
-.11182E+08
-.11145E+08
-.11162E+08
-.11069E+08
-.11255E+08
-.11116E+08
-.11176E+08
-.11006E+08
-.11281E+08
-.11079E+08
-.11199E+08
-.11210E+08
-.11076E+08
-.11220E+08
-.11070E+08
</weights>
</event>
<event>
      6  10001 -1.11453E+07  8.94427E-01 -1.00000E+00  3.77149E-01
      21    -1     0     0   502   501  0.000000000E+00  0.000000000E+00  5.935067464E-03  5.935067464E-03  0.000000000E+00  0.00000E+00  9.000E+00
       2    -1     0     0   501     0  0.000000000E+00  0.000000000E+00 -3.717980871E+02  3.717980871E+02  0.000000000E+00  0.00000E+00  9.000E+00
      23     2     1     2     0     0  7.055985650E-01 -9.373203039E-01 -2.751612582E+02  2.751660065E+02  1.112049212E+00  0.00000E+00  9.000E+00
      11     1     3     3     0     0  7.276703847E-01 -5.833876121E-01 -2.544734666E+02  2.544751757E+02  5.110000000E-04  0.00000E+00  9.000E+00
     -11     1     3     3     0     0 -2.207181969E-02 -3.539326919E-01 -2.068779162E+01  2.069083077E+01  5.110000000E-04  0.00000E+00  9.000E+00
       2     1     1     2   502     0 -7.055985650E-01  9.373203039E-01 -9.663089382E+01  9.663801570E+01  0.000000000E+00  0.00000E+00  9.000E+00
#rwgt            1          17  -15992746.007322658                3    14372858           0
<weights>
-.11145E+08
-.11826E+08
-.10309E+08
-.14372E+08
-.82605E+07
-.91702E+07
-.13910E+08
-.11128E+08
-.11162E+08
-.11168E+08
-.11157E+08
-.11021E+08
-.11290E+08
-.11160E+08
-.11158E+08
-.11327E+08
-.10872E+08
-.11401E+08
-.10763E+08
-.10712E+08
-.11429E+08
-.11105E+08
-.11165E+08
-.11091E+08
-.11155E+08
-.11265E+08
-.11066E+08
-.10838E+08
-.11460E+08
-.11079E+08
-.11174E+08
-.11022E+08
-.11265E+08
-.11418E+08
-.10802E+08
-.11113E+08
-.11173E+08
-.11158E+08
-.11136E+08
-.11224E+08
-.11073E+08
-.11143E+08
-.11148E+08
-.11128E+08
-.11163E+08
</weights>
</event>
<event>
      6  10001 -1.11453E+07  8.94427E-01 -1.00000E+00  4.70319E-01
      21    -1     0     0   502   501  0.000000000E+00  0.000000000E+00  2.407467659E-02  2.407467659E-02  0.000000000E+00  0.00000E+00  9.000E+00
       2    -1     0     0   501     0  0.000000000E+00  0.000000000E+00 -1.705929444E+02  1.705929444E+02  0.000000000E+00  0.00000E+00  9.000E+00
      23     2     1     2     0     0  6.766582858E-01 -7.807495228E-01 -1.477812802E+02  1.478060202E+02  2.499074917E+00  0.00000E+00  9.000E+00
      11     1     3     3     0     0  1.148723046E+00 -1.378270204E+00 -1.228825508E+02  1.228956488E+02  5.110000000E-04  0.00000E+00  9.000E+00
     -11     1     3     3     0     0 -4.720647607E-01  5.975206810E-01 -2.489872939E+01  2.491037137E+01  5.110000000E-04  0.00000E+00  9.000E+00
       2     1     1     2   502     0 -6.766582858E-01  7.807495228E-01 -2.278758945E+01  2.281099887E+01  0.000000000E+00  0.00000E+00  9.000E+00
#rwgt            1          17  -30083383.938449994                3    14375235           0
<weights>
-.11145E+08
-.12483E+08
-.96505E+07
-.15171E+08
-.77325E+07
-.91702E+07
-.13910E+08
-.11133E+08
-.11156E+08
-.11171E+08
-.11171E+08
-.11121E+08
-.11179E+08
-.11173E+08
-.11172E+08
-.11277E+08
-.10927E+08
-.11186E+08
-.11011E+08
-.11000E+08
-.11191E+08
-.11104E+08
-.11128E+08
-.11198E+08
-.11037E+08
-.11103E+08
-.11158E+08
-.11083E+08
-.11134E+08
-.11109E+08
-.11126E+08
-.11081E+08
-.11199E+08
-.11185E+08
-.11085E+08
-.11140E+08
-.11145E+08
-.11167E+08
-.11125E+08
-.11143E+08
-.11143E+08
-.11174E+08
-.11114E+08
-.11115E+08
-.11173E+08
</weights>
</event>
<event>
      6  10001 -1.11453E+07  8.94427E-01 -1.00000E+00  2.15634E-01
       2    -1     0     0   501     0  0.000000000E+00  0.000000000E+00  1.047583048E+03  1.047583048E+03  0.000000000E+00  0.00000E+00  9.000E+00
      21    -1     0     0   502   501  0.000000000E+00  0.000000000E+00 -1.342318763E-02  1.342318763E-02  0.000000000E+00  0.00000E+00  9.000E+00
      23     2     1     2     0     0  9.172768737E-01 -1.500874310E+00  9.823474631E+02  9.823505947E+02  1.748891892E+00  0.00000E+00  9.000E+00
      11     1     3     3     0     0 -4.778980567E-01 -7.487766513E-01  3.894690041E+02  3.894700171E+02  5.110000000E-04  0.00000E+00  9.000E+00
     -11     1     3     3     0     0  1.395174930E+00 -7.520976588E-01  5.928784590E+02  5.928805776E+02  5.110000000E-04  0.00000E+00  9.000E+00
       2     1     1     2   502     0 -9.172768737E-01  1.500874310E+00  6.522216214E+01  6.524587691E+01  0.000000000E+00  0.00000E+00  9.000E+00
#rwgt            1          24  -28730495.529130328                3    14375721           0
<weights>
-.11145E+08
-.11241E+08
-.10875E+08
-.13669E+08
-.87142E+07
-.91662E+07
-.13909E+08
-.11179E+08
-.11111E+08
-.10836E+08
-.10833E+08
-.10966E+08
-.11017E+08
-.10856E+08
-.10842E+08
-.11224E+08
-.11200E+08
-.11444E+08
-.11479E+08
-.11469E+08
-.11422E+08
-.11479E+08
-.11501E+08
-.11379E+08
-.11329E+08
-.11284E+08
-.11296E+08
-.11415E+08
-.11354E+08
-.11454E+08
-.11491E+08
-.11178E+08
-.11216E+08
-.11139E+08
-.11174E+08
-.11215E+08
-.11094E+08
-.11108E+08
-.11107E+08
-.11160E+08
-.11133E+08
-.11182E+08
-.11107E+08
-.11486E+08
-.10831E+08
</weights>
</event>
<event>
      7  10001  1.11453E+07  8.94427E-01 -1.00000E+00  6.07649E-01
       2    -1     0     0   501     0  0.000000000E+00  0.000000000E+00  5.018792634E+02  5.018792634E+02  0.000000000E+00  0.00000E+00  9.000E+00
      21    -1     0     0   511   502  0.000000000E+00  0.000000000E+00 -2.603897001E-02  2.603897001E-02  0.000000000E+00  0.00000E+00  9.000E+00
      23     2     1     2     0     0  3.342584001E-02  2.121654202E-01  4.658374034E+02  4.658392805E+02  1.304878803E+00  0.00000E+00  9.000E+00
      11     1     3     3     0     0 -3.735468414E-01 -2.557697840E-01  3.440748324E+02  3.440751302E+02  5.110000000E-04  0.00000E+00  9.000E+00
     -11     1     3     3     0     0  4.069726814E-01  4.679352042E-01  1.217625711E+02  1.217641503E+02  5.110000000E-04  0.00000E+00  9.000E+00
      21     1     1     2   501   502 -2.050980139E-01 -3.199398274E-01  1.430909458E+00  1.480516317E+00  1.976862425E-07  0.00000E+00  9.000E+00
       2     1     1     2   511     0  1.716721739E-01  1.077744072E-01  3.458491156E+01  3.458550556E+01  0.000000000E+00  0.00000E+00  9.000E+00
#rwgt            2         249   52118719.714418270                3    14376519           0
<weights>
0.11145E+08
0.10877E+08
0.11203E+08
0.13220E+08
0.89768E+07
0.91702E+07
0.13910E+08
0.11164E+08
0.11129E+08
0.10813E+08
0.10797E+08
0.10958E+08
0.10996E+08
0.10828E+08
0.10808E+08
0.11227E+08
0.11220E+08
0.11477E+08
0.11526E+08
0.11512E+08
0.11453E+08
0.11521E+08
0.11538E+08
0.11441E+08
0.11328E+08
0.11289E+08
0.11406E+08
0.11451E+08
0.11387E+08
0.11500E+08
0.11533E+08
0.11189E+08
0.11218E+08
0.11136E+08
0.11181E+08
0.11202E+08
0.11109E+08
0.11153E+08
0.11063E+08
0.11172E+08
0.11123E+08
0.11188E+08
0.11100E+08
0.11522E+08
0.10800E+08
</weights>
</event>
<event>
      7  10001  1.11453E+07  1.51122E+00 -1.00000E+00  4.15322E-01
       2    -1     0     0   501     0  0.000000000E+00  0.000000000E+00  1.127142658E+00  1.127142658E+00  0.000000000E+00  0.00000E+00  9.000E+00
      -2    -1     0     0     0   502  0.000000000E+00  0.000000000E+00 -7.614207386E+00  7.614207386E+00  0.000000000E+00  0.00000E+00  9.000E+00
      23     2     1     2     0     0  1.215002357E+00 -6.021747789E-01 -5.287007538E+00  6.533951971E+00  3.591828845E+00  0.00000E+00  9.000E+00
      11     1     3     3     0     0  2.265964456E+00 -3.805272865E-01 -4.864335658E+00  5.379698652E+00  5.110000000E-04  0.00000E+00  9.000E+00
     -11     1     3     3     0     0 -1.050962099E+00 -2.216474924E-01 -4.226718800E-01  1.154253319E+00  5.110000000E-04  0.00000E+00  9.000E+00
      21     1     1     2   511   502 -5.724047887E-01 -3.398430209E-01 -2.121948089E-01  6.986896005E-01  1.442798729E-08  0.00000E+00  9.000E+00
      21     1     1     2   501   511 -6.425975684E-01  9.420177998E-01 -9.878623811E-01  1.508708472E+00  2.580956828E-08  0.00000E+00  9.000E+00
#rwgt            1          23   389507.67289105349                3    14377245           0
<weights>
0.11145E+08
0.12705E+08
0.96170E+07
0.12380E+08
0.96464E+07
0.11207E+08
0.10783E+08
0.11121E+08
0.11163E+08
0.10831E+08
0.10820E+08
0.10983E+08
0.10967E+08
0.10845E+08
0.10830E+08
0.11140E+08
0.11331E+08
0.11482E+08
0.11449E+08
0.11431E+08
0.11468E+08
0.11488E+08
0.11517E+08
0.11368E+08
0.11334E+08
0.11432E+08
0.11016E+08
0.11479E+08
0.11246E+08
0.11468E+08
0.11487E+08
0.11124E+08
0.11271E+08
0.11180E+08
0.11136E+08
0.10983E+08
0.11328E+08
0.11072E+08
0.11104E+08
0.11162E+08
0.11125E+08
0.11239E+08
0.11045E+08
0.11493E+08
0.10826E+08
</weights>
</event>
<event>
      7  10001  1.11453E+07  1.45543E+00 -1.00000E+00  4.36128E-01
      21    -1     0     0   501   512  0.000000000E+00  0.000000000E+00  1.575132434E+00  1.575132434E+00  0.000000000E+00  0.00000E+00  9.000E+00
      -3    -1     0     0     0   502  0.000000000E+00  0.000000000E+00 -1.092239678E+02  1.092239678E+02  0.000000000E+00  0.00000E+00  9.000E+00
      23     2     1     2     0     0 -1.808262280E+00  1.010648504E+00 -9.854711068E+01  9.861997605E+01  3.174181665E+00  0.00000E+00  9.000E+00
      11     1     3     3     0     0 -2.479157804E+00 -6.933237227E-02 -7.149658489E+01  7.153958821E+01  5.110000000E-04  0.00000E+00  9.000E+00
     -11     1     3     3     0     0  6.708955234E-01  1.079980876E+00 -2.705052579E+01  2.708038783E+01  5.110000000E-04  0.00000E+00  9.000E+00
      21     1     1     2   501   502  4.631202030E-01 -4.548767379E-01  1.417826452E+00  1.559366864E+00  1.225886571E-06  0.00000E+00  9.000E+00
      -3     1     1     2     0   512  1.345142077E+00 -5.557717656E-01 -1.051955112E+01  1.061975731E+01  0.000000000E+00  0.00000E+00  9.000E+00
#rwgt            2         158   27127.617079306623                3    14384079           0
<weights>
0.11143E+08
0.10278E+08
0.11996E+08
0.12492E+08
0.96119E+07
0.91683E+07
0.13907E+08
0.11100E+08
0.11182E+08
0.11151E+08
0.11278E+08
0.11425E+08
0.10855E+08
0.11246E+08
0.11212E+08
0.12579E+08
0.92576E+07
0.11620E+08
0.10266E+08
0.10245E+08
0.11582E+08
0.11018E+08
0.11043E+08
0.99924E+07
0.12158E+08
0.10975E+08
0.10377E+08
0.10091E+08
0.12203E+08
0.10946E+08
0.11109E+08
0.11239E+08
0.11013E+08
0.11213E+08
0.11080E+08
0.11171E+08
0.11112E+08
0.11081E+08
0.11238E+08
0.11085E+08
0.11184E+08
0.11246E+08
0.11032E+08
0.11051E+08
0.11217E+08
</weights>
</event>
<event>
      6  10001 -1.11453E+07  8.94427E-01 -1.00000E+00  1.64027E-01
      21    -1     0     0   502   501  0.000000000E+00  0.000000000E+00  1.106394075E-02  1.106394075E-02  0.000000000E+00  0.00000E+00  9.000E+00
       2    -1     0     0   501     0  0.000000000E+00  0.000000000E+00 -1.820642452E+02  1.820642452E+02  0.000000000E+00  0.00000E+00  9.000E+00
      23     2     1     2     0     0 -4.161990160E-01  4.994240595E-02 -1.529108194E+02  1.529299326E+02  2.381154315E+00  0.00000E+00  9.000E+00
      11     1     3     3     0     0  5.214696752E-01  1.258338800E-01 -8.962589741E+00  8.978629066E+00  5.110000000E-04  0.00000E+00  9.000E+00
     -11     1     3     3     0     0 -9.376686912E-01 -7.589147404E-02 -1.439482296E+02  1.439513036E+02  5.110000000E-04  0.00000E+00  9.000E+00
       2     1     1     2   502     0  4.161990160E-01 -4.994240595E-02 -2.914236190E+01  2.914537652E+01  0.000000000E+00  0.00000E+00  9.000E+00
#rwgt            1          17  -9573764.0881916713                3    14386401           0
<weights>
-.11145E+08
-.12246E+08
-.98848E+07
-.14884E+08
-.79202E+07
-.91702E+07
-.13910E+08
-.11131E+08
-.11158E+08
-.11172E+08
-.11171E+08
-.11113E+08
-.11190E+08
-.11173E+08
-.11171E+08
-.11288E+08
-.10913E+08
-.11205E+08
-.10988E+08
-.10974E+08
-.11212E+08
-.11104E+08
-.11132E+08
-.11191E+08
-.11045E+08
-.11113E+08
-.11152E+08
-.11062E+08
-.11162E+08
-.11106E+08
-.11130E+08
-.11074E+08
-.11206E+08
-.11203E+08
-.11063E+08
-.11139E+08
-.11146E+08
-.11169E+08
-.11122E+08
-.11150E+08
-.11137E+08
-.11171E+08
-.11118E+08
-.11115E+08
-.11173E+08
</weights>
</event>
<event>
      7  10001  1.11453E+07  4.83468E+00 -1.00000E+00  2.43444E-01
       3    -1     0     0   501     0  0.000000000E+00  0.000000000E+00  2.452647950E+00  2.452647950E+00  0.000000000E+00  0.00000E+00  9.000E+00
       2    -1     0     0   502     0  0.000000000E+00  0.000000000E+00 -2.889289214E+01  2.889289214E+01  0.000000000E+00  0.00000E+00  9.000E+00
      23     2     1     2     0     0  3.748197852E-01  1.576768867E+00 -9.445531783E+00  9.791338091E+00  2.006375094E+00  0.00000E+00  9.000E+00
      11     1     3     3     0     0 -2.032587502E-01  1.839712720E+00 -5.718369420E+00  6.010458060E+00  5.110000000E-04  0.00000E+00  9.000E+00
     -11     1     3     3     0     0  5.780785354E-01 -2.629438533E-01 -3.727162363E+00  3.780880031E+00  5.110000000E-04  0.00000E+00  9.000E+00
       3     1     1     2   502     0  4.287116399E+00 -2.857589994E+00 -1.564796641E+00  5.384586904E+00  0.000000000E+00  0.00000E+00  9.000E+00
       2     1     1     2   501     0 -4.661936185E+00  1.280821127E+00 -1.542991576E+01  1.616961509E+01  0.000000000E+00  0.00000E+00  9.000E+00
#rwgt            2         284   28101.035779556751                3    14387707           0
<weights>
0.11143E+08
0.10805E+08
0.11378E+08
0.13132E+08
0.91169E+07
0.91683E+07
0.13907E+08
0.11195E+08
0.11090E+08
0.11004E+08
0.11048E+08
0.11113E+08
0.11028E+08
0.11038E+08
0.11047E+08
0.11083E+08
0.11256E+08
0.11135E+08
0.11377E+08
0.11386E+08
0.11123E+08
0.11241E+08
0.11250E+08
0.11238E+08
0.11187E+08
0.11186E+08
0.11118E+08
0.11365E+08
0.10970E+08
0.11230E+08
0.11219E+08
0.11142E+08
0.11172E+08
0.11075E+08
0.11246E+08
0.11109E+08
0.11182E+08
0.10986E+08
0.11279E+08
0.11082E+08
0.11192E+08
0.11209E+08
0.11073E+08
0.11257E+08
0.11031E+08
</weights>
</event>
<event>
      7  10001  1.11453E+07  1.88948E+00 -1.00000E+00  3.64850E-01
      21    -1     0     0   502   501  0.000000000E+00  0.000000000E+00  9.657600568E-02  9.657600568E-02  0.000000000E+00  0.00000E+00  9.000E+00
      -2    -1     0     0     0   502  0.000000000E+00  0.000000000E+00 -2.507679262E+01  2.507679262E+01  0.000000000E+00  0.00000E+00  9.000E+00
      23     2     1     2     0     0 -4.477328881E-01 -7.517546813E-01 -1.794030470E+01  1.800434273E+01  1.239445320E+00  0.00000E+00  9.000E+00
      11     1     3     3     0     0 -3.703460528E-01  2.202646964E-01 -9.145994454E+00  9.156139337E+00  5.110000000E-04  0.00000E+00  9.000E+00
     -11     1     3     3     0     0 -7.738683527E-02 -9.720193777E-01 -8.794310244E+00  8.848203395E+00  5.110000000E-04  0.00000E+00  9.000E+00
      -2     1     1     2     0   511 -8.390216258E-02  2.131503998E-01 -4.785508215E+00  4.790987533E+00  0.000000000E+00  0.00000E+00  9.000E+00
      21     1     1     2   511   501  5.316350507E-01  5.386042815E-01 -2.254403706E+00  2.378038366E+00  7.300048300E-08  0.00000E+00  9.000E+00
#rwgt            2         160   4180991.4976081587                3    14388091           0
<weights>
0.11145E+08
0.11626E+08
0.10392E+08
0.14129E+08
0.83268E+07
0.91702E+07
0.13910E+08
0.11218E+08
0.11072E+08
0.10929E+08
0.10984E+08
0.11015E+08
0.11055E+08
0.10974E+08
0.10985E+08
0.11117E+08
0.11243E+08
0.11318E+08
0.11283E+08
0.11262E+08
0.11319E+08
0.11298E+08
0.11342E+08
0.11226E+08
0.11284E+08
0.11330E+08
0.11039E+08
0.11296E+08
0.11129E+08
0.11260E+08
0.11304E+08
0.11088E+08
0.11252E+08
0.11223E+08
0.11076E+08
0.11064E+08
0.11232E+08
0.10908E+08
0.11343E+08
0.11115E+08
0.11165E+08
0.11229E+08
0.11056E+08
0.11333E+08
0.10964E+08
</weights>
</event>
<event>
      7  10001  1.11453E+07  4.90202E+00 -1.00000E+00  2.42373E-01
      21    -1     0     0   502   501  0.000000000E+00  0.000000000E+00  2.038517917E-01  2.038517917E-01  0.000000000E+00  0.00000E+00  9.000E+00
      -2    -1     0     0     0   502  0.000000000E+00  0.000000000E+00 -4.229371604E+01  4.229371604E+01  0.000000000E+00  0.00000E+00  9.000E+00
      23     2     1     2     0     0  6.465804024E-01 -2.872781150E-01 -3.615869763E+01  3.618068631E+01  1.044055848E+00  0.00000E+00  9.000E+00
      11     1     3     3     0     0 -2.752294119E-01 -1.057690566E-01 -1.222590516E+01  1.222946015E+01  5.110000000E-04  0.00000E+00  9.000E+00
     -11     1     3     3     0     0  9.218098144E-01 -1.815090584E-01 -2.393279247E+01  2.395122616E+01  5.110000000E-04  0.00000E+00  9.000E+00
      -2     1     1     2     0   512  4.632211068E-01  1.538834632E-02 -4.302403141E+00  4.327295157E+00  0.000000000E+00  0.00000E+00  9.000E+00
      21     1     1     2   512   501 -1.109801509E+00  2.718897687E-01 -1.628763478E+00  1.989586365E+00  1.632340424E-07  0.00000E+00  9.000E+00
#rwgt            2         160   635298.88820183021                3    14390470           0
<weights>
0.11145E+08
0.11229E+08
0.10820E+08
0.13648E+08
0.86693E+07
0.91702E+07
0.13910E+08
0.11224E+08
0.11067E+08
0.10993E+08
0.11060E+08
0.11038E+08
0.11090E+08
0.11049E+08
0.11060E+08
0.11096E+08
0.11220E+08
0.11250E+08
0.11181E+08
0.11157E+08
0.11258E+08
0.11215E+08
0.11241E+08
0.11189E+08
0.11219E+08
0.11267E+08
0.11063E+08
0.11217E+08
0.11072E+08
0.11178E+08
0.11220E+08
0.11084E+08
0.11230E+08
0.11250E+08
0.11045E+08
0.11057E+08
0.11230E+08
0.10903E+08
0.11392E+08
0.11100E+08
0.11176E+08
0.11241E+08
0.11043E+08
0.11251E+08
0.11036E+08
</weights>
</event>
<event>
      6  10001 -1.11453E+07  8.94427E-01 -1.00000E+00  2.94810E-01
      -3    -1     0     0     0   502  0.000000000E+00  0.000000000E+00  1.585931733E+02  1.585931733E+02  0.000000000E+00  0.00000E+00  9.000E+00
      21    -1     0     0   502   501  0.000000000E+00  0.000000000E+00 -2.466452400E-02  2.466452400E-02  0.000000000E+00  0.00000E+00  9.000E+00
      23     2     1     2     0     0 -2.897742939E-01 -4.990566747E-01  1.545698365E+02  1.545777380E+02  1.452480498E+00  0.00000E+00  9.000E+00
      11     1     3     3     0     0  5.856097322E-01 -1.424755944E-01  7.093449737E+01  7.093705770E+01  5.110000000E-04  0.00000E+00  9.000E+00
     -11     1     3     3     0     0 -8.753840261E-01 -3.565810803E-01  8.363533912E+01  8.364068028E+01  5.110000000E-04  0.00000E+00  9.000E+00
      -3     1     1     2     0   501  2.897742939E-01  4.990566747E-01  3.998672322E+00  4.040099881E+00  0.000000000E+00  0.00000E+00  9.000E+00
#rwgt            1           5  -2002722.9365105489                3    14390645           0
<weights>
-.11145E+08
-.12515E+08
-.95460E+07
-.15226E+08
-.76492E+07
-.91610E+07
-.13909E+08
-.11169E+08
-.11123E+08
-.10819E+08
-.10806E+08
-.10960E+08
-.11002E+08
-.10836E+08
-.10817E+08
-.11226E+08
-.11215E+08
-.11468E+08
-.11513E+08
-.11500E+08
-.11444E+08
-.11509E+08
-.11528E+08
-.11423E+08
-.11328E+08
-.11288E+08
-.11372E+08
-.11442E+08
-.11378E+08
-.11488E+08
-.11522E+08
-.11186E+08
-.11217E+08
-.11137E+08
-.11179E+08
-.11206E+08
-.11104E+08
-.11141E+08
-.11075E+08
-.11168E+08
-.11126E+08
-.11186E+08
-.11102E+08
-.11512E+08
-.10808E+08
</weights>
</event>
<event>
      6  10001 -1.11453E+07  8.94427E-01 -1.00000E+00  5.83012E-01
      21    -1     0     0   502   501  0.000000000E+00  0.000000000E+00  1.992610612E-02  1.992610612E-02  0.000000000E+00  0.00000E+00  9.000E+00
       2    -1     0     0   501     0  0.000000000E+00  0.000000000E+00 -1.327248262E+02  1.327248262E+02  0.000000000E+00  0.00000E+00  9.000E+00
      23     2     1     2     0     0 -1.663486455E-01 -2.438323123E-01 -1.290080318E+02  1.290361190E+02  2.675930285E+00  0.00000E+00  9.000E+00
      11     1     3     3     0     0 -1.483824798E-01  4.547186937E-01 -1.200237530E+02  1.200247061E+02  5.110000000E-04  0.00000E+00  9.000E+00
     -11     1     3     3     0     0 -1.796616568E-02 -6.985510060E-01 -8.984278835E+00  9.011412916E+00  5.110000000E-04  0.00000E+00  9.000E+00
       2     1     1     2   502     0  1.663486455E-01  2.438323123E-01 -3.696868328E+00  3.708633374E+00  0.000000000E+00  0.00000E+00  9.000E+00
#rwgt            1          17  -15150154.161616946                3    14391920           0
<weights>
-.11145E+08
-.12229E+08
-.99017E+07
-.14863E+08
-.79337E+07
-.91702E+07
-.13910E+08
-.11140E+08
-.11149E+08
-.11166E+08
-.11172E+08
-.11142E+08
-.11151E+08
-.11173E+08
-.11172E+08
-.11236E+08
-.10980E+08
-.11135E+08
-.11077E+08
-.11074E+08
-.11136E+08
-.11108E+08
-.11119E+08
-.11216E+08
-.11023E+08
-.11079E+08
-.11172E+08
-.11141E+08
-.11060E+08
-.11116E+08
-.11116E+08
-.11102E+08
-.11177E+08
-.11139E+08
-.11145E+08
-.11139E+08
-.11146E+08
-.11153E+08
-.11141E+08
-.11123E+08
-.11161E+08
-.11183E+08
-.11105E+08
-.11115E+08
-.11171E+08
</weights>
</event>
<event>
      6  10001 -1.11453E+07  8.94427E-01 -1.00000E+00  2.26875E-01
      21    -1     0     0   502   501  0.000000000E+00  0.000000000E+00  2.097521270E-02  2.097521270E-02  0.000000000E+00  0.00000E+00  9.000E+00
       2    -1     0     0   501     0  0.000000000E+00  0.000000000E+00 -5.590786053E+02  5.590786053E+02  0.000000000E+00  0.00000E+00  9.000E+00
      23     2     1     2     0     0 -1.074511031E-01 -2.501419132E-01 -5.581398100E+02  5.581422350E+02  1.622610878E+00  0.00000E+00  9.000E+00
      11     1     3     3     0     0  2.913917102E-01  1.577821716E-01 -4.877655431E+02  4.877656556E+02  5.110000000E-04  0.00000E+00  9.000E+00
     -11     1     3     3     0     0 -3.988428133E-01 -4.079240848E-01 -7.037426697E+01  7.037657941E+01  5.110000000E-04  0.00000E+00  9.000E+00
       2     1     1     2   502     0  1.074511031E-01  2.501419132E-01 -9.178200396E-01  9.573454661E-01  0.000000000E+00  0.00000E+00  9.000E+00
#rwgt            1          17  -117550738.32830450                3    14392533           0
<weights>
-.11145E+08
-.11678E+08
-.10419E+08
-.14193E+08
-.83482E+07
-.91702E+07
-.13910E+08
-.11131E+08
-.11159E+08
-.11163E+08
-.11147E+08
-.10961E+08
-.11352E+08
-.11155E+08
-.11150E+08
-.11213E+08
-.11037E+08
-.11516E+08
-.10630E+08
-.10555E+08
-.11562E+08
-.11111E+08
-.11172E+08
-.11006E+08
-.11249E+08
-.11414E+08
-.10980E+08
-.10682E+08
-.11668E+08
-.11060E+08
-.11198E+08
-.11044E+08
-.11244E+08
-.11592E+08
-.10604E+08
-.11083E+08
-.11202E+08
-.11138E+08
-.11161E+08
-.11277E+08
-.11028E+08
-.11128E+08
-.11163E+08
-.11135E+08
-.11156E+08
</weights>
</event>
<event>
      6  10001 -1.11453E+07  8.94427E-01 -1.00000E+00  2.54826E-01
      21    -1     0     0   502   501  0.000000000E+00  0.000000000E+00  1.143188073E-02  1.143188073E-02  0.000000000E+00  0.00000E+00  9.000E+00
       2    -1     0     0   501     0  0.000000000E+00  0.000000000E+00 -7.202672565E+02  7.202672565E+02  0.000000000E+00  0.00000E+00  9.000E+00
      23     2     1     2     0     0 -5.029810428E-01 -1.933515156E-01 -7.123132105E+02  7.123178157E+02  2.504064866E+00  0.00000E+00  9.000E+00
      11     1     3     3     0     0 -8.825383800E-01 -5.596643370E-01 -1.249999140E+02  1.250042823E+02  5.110000000E-04  0.00000E+00  9.000E+00
     -11     1     3     3     0     0  3.795573372E-01  3.663128213E-01 -5.873132964E+02  5.873135333E+02  5.110000000E-04  0.00000E+00  9.000E+00
       2     1     1     2   502     0  5.029810428E-01  1.933515156E-01 -7.942614132E+00  7.960872691E+00  0.000000000E+00  0.00000E+00  9.000E+00
#rwgt            1          17  -166169483.39131433                3    14395065           0
<weights>
-.11145E+08
-.10925E+08
-.11332E+08
-.13278E+08
-.90800E+07
-.91702E+07
-.13910E+08
-.11134E+08
-.11156E+08
-.11163E+08
-.11141E+08
-.10930E+08
-.11386E+08
-.11153E+08
-.11147E+08
-.11054E+08
-.11267E+08
-.11570E+08
-.10568E+08
-.10477E+08
-.11627E+08
-.11118E+08
-.11169E+08
-.10951E+08
-.11311E+08
-.11534E+08
-.10911E+08
-.10587E+08
-.11795E+08
-.11050E+08
-.11209E+08
-.11100E+08
-.11187E+08
-.11707E+08
-.10477E+08
-.11061E+08
-.11223E+08
-.11124E+08
-.11177E+08
-.11310E+08
-.11000E+08
-.11120E+08
-.11171E+08
-.11138E+08
-.11153E+08
</weights>
</event>
<event>
      7  10001  1.11453E+07  2.14218E+00 -1.00000E+00  3.41671E-01
      21    -1     0     0   502   511  0.000000000E+00  0.000000000E+00  1.043920628E+02  1.043920628E+02  0.000000000E+00  0.00000E+00  9.000E+00
       2    -1     0     0   501     0  0.000000000E+00  0.000000000E+00 -3.534365956E-01  3.534365956E-01  0.000000000E+00  0.00000E+00  9.000E+00
      23     2     1     2     0     0 -1.480985714E+00 -2.778374239E+00  1.680453297E+01  1.718533856E+01  1.740933968E+00  0.00000E+00  9.000E+00
      11     1     3     3     0     0 -3.094894212E-01 -5.669494492E-01  1.046225937E+00  1.229554534E+00  5.110000000E-04  0.00000E+00  9.000E+00
     -11     1     3     3     0     0 -1.171496292E+00 -2.211424790E+00  1.575830703E+01  1.595578403E+01  5.110000000E-04  0.00000E+00  9.000E+00
       2     1     1     2   502     0  5.358770076E-01  8.559580072E-01  1.554086108E+00  1.853378512E+00  0.000000000E+00  0.00000E+00  9.000E+00
      21     1     1     2   501   511  9.451087059E-01  1.922416232E+00  8.568000713E+01  8.570678232E+01  1.348699152E-06  0.00000E+00  9.000E+00
#rwgt            1          17   420715.00270597206                3    14396130           0
<weights>
0.11145E+08
0.12772E+08
0.95672E+07
0.12106E+08
0.98359E+07
0.11451E+08
0.10408E+08
0.10924E+08
0.11417E+08
0.10807E+08
0.10759E+08
0.10977E+08
0.10944E+08
0.10812E+08
0.10775E+08
0.11173E+08
0.11323E+08
0.11522E+08
0.11526E+08
0.11509E+08
0.11500E+08
0.11566E+08
0.11554E+08
0.11490E+08
0.11290E+08
0.11359E+08
0.11217E+08
0.11531E+08
0.11343E+08
0.11559E+08
0.11558E+08
0.11167E+08
0.11252E+08
0.11133E+08
0.11194E+08
0.10997E+08
0.11335E+08
0.11211E+08
0.11010E+08
0.11177E+08
0.11115E+08
0.11225E+08
0.11061E+08
0.11548E+08
0.10778E+08
</weights>
</event>
<event>
      6  10001 -1.11453E+07  8.94427E-01 -1.00000E+00  2.54467E-01
      21    -1     0     0   502   501  0.000000000E+00  0.000000000E+00  9.967211674E-03  9.967211674E-03  0.000000000E+00  0.00000E+00  9.000E+00
       2    -1     0     0   501     0  0.000000000E+00  0.000000000E+00 -7.919142821E+02  7.919142821E+02  0.000000000E+00  0.00000E+00  9.000E+00
      23     2     1     2     0     0 -6.773150435E-02  2.115453698E+00 -6.050197968E+02  6.050277463E+02  2.267059147E+00  0.00000E+00  9.000E+00
      11     1     3     3     0     0  5.102823504E-01 -2.081997715E-01 -2.079193930E+02  2.079201234E+02  5.110000000E-04  0.00000E+00  9.000E+00
     -11     1     3     3     0     0 -5.780138548E-01  2.323653469E+00 -3.971004038E+02  3.971076229E+02  5.110000000E-04  0.00000E+00  9.000E+00
       2     1     1     2   502     0  6.773150435E-02 -2.115453698E+00 -1.868845181E+02  1.868965030E+02  0.000000000E+00  0.00000E+00  9.000E+00
#rwgt            1          17  -43568510.551972643                3    14402742           0
<weights>
-.11145E+08
-.11507E+08
-.10643E+08
-.13985E+08
-.85279E+07
-.91702E+07
-.13910E+08
-.11135E+08
-.11156E+08
-.11162E+08
-.11140E+08
-.10924E+08
-.11392E+08
-.11153E+08
-.11146E+08
-.11027E+08
-.11304E+08
-.11581E+08
-.10555E+08
-.10462E+08
-.11640E+08
-.11119E+08
-.11169E+08
-.10940E+08
-.11323E+08
-.11555E+08
-.10899E+08
-.10569E+08
-.11819E+08
-.11049E+08
-.11211E+08
-.11109E+08
-.11178E+08
-.11729E+08
-.10454E+08
-.11058E+08
-.11227E+08
-.11122E+08
-.11180E+08
-.11316E+08
-.10994E+08
-.11119E+08
-.11173E+08
-.11138E+08
-.11153E+08
</weights>
</event>
<event>
      6  10001  1.11453E+07  8.94427E-01 -1.00000E+00  5.68766E-01
      21    -1     0     0   502   501  0.000000000E+00  0.000000000E+00  1.164461558E+02  1.164461558E+02  0.000000000E+00  0.00000E+00  9.000E+00
      -4    -1     0     0     0   502  0.000000000E+00  0.000000000E+00 -4.885168751E-02  4.885168751E-02  0.000000000E+00  0.00000E+00  9.000E+00
      23     2     1     2     0     0  4.674223820E-01 -2.257084757E-01  1.549622608E+01  1.559259435E+01  1.651226203E+00  0.00000E+00  9.000E+00
      11     1     3     3     0     0 -3.938297039E-01  3.905801794E-01  8.340637938E+00  8.359060724E+00  5.110000000E-04  0.00000E+00  9.000E+00
     -11     1     3     3     0     0  8.612520859E-01 -6.162886551E-01  7.155588142E+00  7.233533630E+00  5.110000000E-04  0.00000E+00  9.000E+00
      -4     1     1     2     0   501 -4.674223820E-01  2.257084757E-01  1.009010780E+02  1.009024132E+02  0.000000000E+00  0.00000E+00  9.000E+00
#rwgt            1          12   1313485.0234847441                3    14403046           0
<weights>
0.11145E+08
0.12119E+08
0.10036E+08
0.12854E+08
0.93155E+07
0.10463E+08
0.11926E+08
0.11157E+08
0.11135E+08
0.10772E+08
0.10735E+08
0.10940E+08
0.10965E+08
0.10779E+08
0.10749E+08
0.11235E+08
0.11251E+08
0.11539E+08
0.11591E+08
0.11576E+08
0.11510E+08
0.11594E+08
0.11602E+08
0.11506E+08
0.11342E+08
0.11314E+08
0.11433E+08
0.11518E+08
0.11437E+08
0.11580E+08
0.11606E+08
0.11210E+08
0.11219E+08
0.11130E+08
0.11194E+08
0.11195E+08
0.11118E+08
0.11230E+08
0.10985E+08
0.11191E+08
0.11106E+08
0.11197E+08
0.11092E+08
0.11584E+08
0.10745E+08
</weights>
</event>
<event>
      7  10001  1.11453E+07  9.23457E-01 -1.00000E+00  5.94346E-01
      21    -1     0     0   502   501  0.000000000E+00  0.000000000E+00  8.398354253E+01  8.398354253E+01  0.000000000E+00  0.00000E+00  9.000E+00
       4    -1     0     0   501     0  0.000000000E+00  0.000000000E+00 -5.234321664E-02  5.234321664E-02  0.000000000E+00  0.00000E+00  9.000E+00
      23     2     1     2     0     0  1.063059290E+00  8.663739713E-01  3.644809695E+01  3.652642000E+01  1.958287070E+00  0.00000E+00  9.000E+00
      11     1     3     3     0     0 -1.404121639E-01  9.776369015E-01  9.492991269E+00  9.544232446E+00  5.110000000E-04  0.00000E+00  9.000E+00
     -11     1     3     3     0     0  1.203471454E+00 -1.112629302E-01  2.695510568E+01  2.698218756E+01  5.110000000E-04  0.00000E+00  9.000E+00
       4     1     1     2   511     0 -1.609260475E-01 -4.859853008E-01  2.474538847E+01  2.475068342E+01  0.000000000E+00  0.00000E+00  9.000E+00
      21     1     1     2   502   511 -9.021332424E-01 -3.803886704E-01  2.273771390E+01  2.275878233E+01  4.768371582E-07  0.00000E+00  9.000E+00
#rwgt            1          19   407403.45372582733                3    14421425           0
<weights>
0.11145E+08
0.12376E+08
0.98392E+07
0.12585E+08
0.95091E+07
0.10843E+08
0.11343E+08
0.11157E+08
0.11135E+08
0.10767E+08
0.10728E+08
0.10938E+08
0.10961E+08
0.10773E+08
0.10742E+08
0.11236E+08
0.11254E+08
0.11547E+08
0.11597E+08
0.11583E+08
0.11517E+08
0.11603E+08
0.11609E+08
0.11511E+08
0.11344E+08
0.11317E+08
0.11431E+08
0.11526E+08
0.11443E+08
0.11590E+08
0.11614E+08
0.11213E+08
0.11219E+08
0.11129E+08
0.11196E+08
0.11195E+08
0.11119E+08
0.11238E+08
0.10977E+08
0.11193E+08
0.11104E+08
0.11197E+08
0.11091E+08
0.11592E+08
0.10739E+08
</weights>
</event>
<event>
      6  10001 -1.11453E+07  8.94427E-01 -1.00000E+00  4.33938E-01
       2    -1     0     0   501     0  0.000000000E+00  0.000000000E+00  1.133881895E+02  1.133881895E+02  0.000000000E+00  0.00000E+00  9.000E+00
      21    -1     0     0   502   501  0.000000000E+00  0.000000000E+00 -2.117109222E-02  2.117109222E-02  0.000000000E+00  0.00000E+00  9.000E+00
      23     2     1     2     0     0  8.083735964E-01 -3.475465001E-01  6.978881391E+01  6.982227347E+01  1.974099614E+00  0.00000E+00  9.000E+00
      11     1     3     3     0     0  2.614189510E-01  7.791241955E-01  3.783651672E+01  3.784544057E+01  5.110000000E-04  0.00000E+00  9.000E+00
     -11     1     3     3     0     0  5.469546453E-01 -1.126670696E+00  3.195229719E+01  3.197683290E+01  5.110000000E-04  0.00000E+00  9.000E+00
       2     1     1     2   502     0 -8.083735964E-01  3.475465001E-01  4.357820454E+01  4.358708717E+01  0.000000000E+00  0.00000E+00  9.000E+00
#rwgt            1          24  -9865917.2795400470                3    14430022           0
<weights>
-.11145E+08
-.12734E+08
-.93752E+07
-.15489E+08
-.75123E+07
-.91630E+07
-.13909E+08
-.11175E+08
-.11117E+08
-.10833E+08
-.10829E+08
-.10966E+08
-.11014E+08
-.10853E+08
-.10838E+08
-.11224E+08
-.11203E+08
-.11447E+08
-.11486E+08
-.11475E+08
-.11425E+08
-.11483E+08
-.11504E+08
-.11393E+08
-.11326E+08
-.11281E+08
-.11333E+08
-.11418E+08
-.11359E+08
-.11459E+08
-.11496E+08
-.11178E+08
-.11217E+08
-.11139E+08
-.11174E+08
-.11211E+08
-.11098E+08
-.11114E+08
-.11106E+08
-.11161E+08
-.11132E+08
-.11183E+08
-.11106E+08
-.11490E+08
-.10827E+08
</weights>
</event>
<event>
      6  10001 -1.11453E+07  8.94427E-01 -1.00000E+00  5.90718E-01
      21    -1     0     0   502   501  0.000000000E+00  0.000000000E+00  1.450735995E-02  1.450735995E-02  0.000000000E+00  0.00000E+00  9.000E+00
       1    -1     0     0   501     0  0.000000000E+00  0.000000000E+00 -4.655144134E+01  4.655144134E+01  0.000000000E+00  0.00000E+00  9.000E+00
      23     2     1     2     0     0  1.090334220E-01  4.200917497E-01 -2.578291539E+01  2.580739256E+01  1.036542035E+00  0.00000E+00  9.000E+00
      11     1     3     3     0     0 -2.517644848E-02  3.427629886E-01 -2.525211550E+01  2.525445422E+01  5.110000000E-04  0.00000E+00  9.000E+00
     -11     1     3     3     0     0  1.342098705E-01  7.732876109E-02 -5.307998808E-01  5.529383340E-01  5.110000000E-04  0.00000E+00  9.000E+00
       1     1     1     2   502     0 -1.090334220E-01 -4.200917497E-01 -2.075401860E+01  2.075855615E+01  0.000000000E+00  0.00000E+00  9.000E+00
#rwgt            1          16  -1022154.1946404000                3    14431781           0
<weights>
-.11147E+08
-.12633E+08
-.94929E+07
-.15387E+08
-.76074E+07
-.91509E+07
-.13910E+08
-.11217E+08
-.11076E+08
-.11065E+08
-.11081E+08
-.11011E+08
-.11168E+08
-.11091E+08
-.11100E+08
-.10850E+08
-.11444E+08
-.11111E+08
-.11207E+08
-.11184E+08
-.11105E+08
-.11196E+08
-.11183E+08
-.11201E+08
-.11145E+08
-.11223E+08
-.11082E+08
-.11141E+08
-.11079E+08
-.11161E+08
-.11185E+08
-.11101E+08
-.11203E+08
-.11084E+08
-.11152E+08
-.11067E+08
-.11221E+08
-.10981E+08
-.11321E+08
-.11132E+08
-.11151E+08
-.11223E+08
-.11065E+08
-.11207E+08
-.11083E+08
</weights>
</event>
<event>
      6  10001 -1.11453E+07  8.94427E-01 -1.00000E+00  3.53651E-01
      21    -1     0     0   502   501  0.000000000E+00  0.000000000E+00  2.192771575E-02  2.192771575E-02  0.000000000E+00  0.00000E+00  9.000E+00
      -3    -1     0     0     0   502  0.000000000E+00  0.000000000E+00 -9.290650810E+01  9.290650810E+01  0.000000000E+00  0.00000E+00  9.000E+00
      23     2     1     2     0     0  1.172598909E-01  9.588487206E-01 -3.199611535E+01  3.203230856E+01  1.176542954E+00  0.00000E+00  9.000E+00
      11     1     3     3     0     0 -1.145935420E-01  7.785650211E-01 -9.005920468E+00  9.040237769E+00  5.110000000E-04  0.00000E+00  9.000E+00
     -11     1     3     3     0     0  2.318534329E-01  1.802836995E-01 -2.299019488E+01  2.299207079E+01  5.110000000E-04  0.00000E+00  9.000E+00
      -3     1     1     2     0   501 -1.172598909E-01 -9.588487206E-01 -6.088846503E+01  6.089612725E+01  0.000000000E+00  0.00000E+00  9.000E+00
#rwgt            1          13  -584316.16484038567                3    14436468           0
<weights>
-.11145E+08
-.12581E+08
-.95551E+07
-.15290E+08
-.76560E+07
-.91702E+07
-.13910E+08
-.11124E+08
-.11164E+08
-.11106E+08
-.11248E+08
-.11395E+08
-.10853E+08
-.11208E+08
-.11182E+08
-.12458E+08
-.93982E+07
-.11562E+08
-.10410E+08
-.10421E+08
-.11497E+08
-.11050E+08
-.11091E+08
-.10178E+08
-.11944E+08
-.10621E+08
-.10641E+08
-.10156E+08
-.12186E+08
-.10972E+08
-.11144E+08
-.11227E+08
-.11041E+08
-.11220E+08
-.11077E+08
-.11197E+08
-.11094E+08
-.11026E+08
-.11302E+08
-.11090E+08
-.11184E+08
-.11246E+08
-.11037E+08
-.11094E+08
-.11180E+08
</weights>
</event>
<event>
      6  10001 -1.11453E+07  8.94427E-01 -1.00000E+00  1.40722E-01
       2    -1     0     0   501     0  0.000000000E+00  0.000000000E+00  6.116497938E+01  6.116497938E+01  0.000000000E+00  0.00000E+00  9.000E+00
      21    -1     0     0   502   501  0.000000000E+00  0.000000000E+00 -2.179156847E-02  2.179156847E-02  0.000000000E+00  0.00000E+00  9.000E+00
      23     2     1     2     0     0  1.735412115E-01 -3.855911646E-01  5.337988347E+01  5.341195961E+01  1.801852568E+00  0.00000E+00  9.000E+00
      11     1     3     3     0     0 -2.842647864E-02  6.735426644E-01  2.955915990E+01  2.956684633E+01  5.110000000E-04  0.00000E+00  9.000E+00
     -11     1     3     3     0     0  2.019676901E-01 -1.059133829E+00  2.382072357E+01  2.384511328E+01  5.110000000E-04  0.00000E+00  9.000E+00
       2     1     1     2   502     0 -1.735412115E-01  3.855911646E-01  7.763304342E+00  7.774811342E+00  0.000000000E+00  0.00000E+00  9.000E+00
#rwgt            1          24  -10210712.787632592                3    14437173           0
<weights>
-.11145E+08
-.12437E+08
-.96820E+07
-.15122E+08
-.77579E+07
-.91664E+07
-.13909E+08
-.11172E+08
-.11119E+08
-.10825E+08
-.10816E+08
-.10962E+08
-.11007E+08
-.10843E+08
-.10826E+08
-.11226E+08
-.11210E+08
-.11460E+08
-.11501E+08
-.11489E+08
-.11437E+08
-.11499E+08
-.11518E+08
-.11408E+08
-.11328E+08
-.11286E+08
-.11345E+08
-.11432E+08
-.11370E+08
-.11476E+08
-.11511E+08
-.11183E+08
-.11217E+08
-.11138E+08
-.11177E+08
-.11209E+08
-.11101E+08
-.11129E+08
-.11087E+08
-.11166E+08
-.11128E+08
-.11185E+08
-.11104E+08
-.11503E+08
-.10816E+08
</weights>
</event>
<event>
      6  10001 -1.11453E+07  8.94427E-01 -1.00000E+00  1.73274E-01
      21    -1     0     0   502   501  0.000000000E+00  0.000000000E+00  4.900957050E-03  4.900957050E-03  0.000000000E+00  0.00000E+00  9.000E+00
       2    -1     0     0   501     0  0.000000000E+00  0.000000000E+00 -1.143324080E+02  1.143324080E+02  0.000000000E+00  0.00000E+00  9.000E+00
      23     2     1     2     0     0  2.812614525E-02  2.813092306E-01 -8.034054108E+01  8.034916718E+01  1.142890996E+00  0.00000E+00  9.000E+00
      11     1     3     3     0     0 -1.407108463E-03  7.082114246E-01 -5.963129754E+01  5.963550295E+01  5.110000000E-04  0.00000E+00  9.000E+00
     -11     1     3     3     0     0  2.953325371E-02 -4.269021940E-01 -2.070924354E+01  2.071366423E+01  5.110000000E-04  0.00000E+00  9.000E+00
       2     1     1     2   502     0 -2.812614525E-02 -2.813092306E-01 -3.398696595E+01  3.398814176E+01  0.000000000E+00  0.00000E+00  9.000E+00
#rwgt            1          17  -5730469.7646999331                3    14438976           0
<weights>
-.11145E+08
-.12030E+08
-.10185E+08
-.14620E+08
-.81608E+07
-.91702E+07
-.13910E+08
-.11146E+08
-.11143E+08
-.11159E+08
-.11170E+08
-.11152E+08
-.11134E+08
-.11171E+08
-.11170E+08
-.11209E+08
-.11017E+08
-.11109E+08
-.11117E+08
-.11119E+08
-.11106E+08
-.11112E+08
-.11116E+08
-.11224E+08
-.11020E+08
-.11070E+08
-.11177E+08
-.11175E+08
-.11019E+08
-.11122E+08
-.11113E+08
-.11114E+08
-.11165E+08
-.11115E+08
-.11177E+08
-.11137E+08
-.11147E+08
-.11139E+08
-.11158E+08
-.11111E+08
-.11171E+08
-.11188E+08
-.11100E+08
-.11119E+08
-.11167E+08
</weights>
</event>
<event>
      7  10001  1.11453E+07  2.41640E+00 -1.00000E+00  3.22141E-01
      21    -1     0     0   502   501  0.000000000E+00  0.000000000E+00  7.535072736E+00  7.535072736E+00  0.000000000E+00  0.00000E+00  9.000E+00
       5    -1     0     0   501     0  0.000000000E+00  0.000000000E+00 -3.345617292E-01  3.345617292E-01  0.000000000E+00  0.00000E+00  9.000E+00
      23     2     1     2     0     0  2.202132586E-01 -1.498167473E-01  1.506642225E+00  2.012480487E+00  1.307351513E+00  0.00000E+00  9.000E+00
      11     1     3     3     0     0 -3.155472670E-01 -3.010844116E-01  3.323518776E-02  4.374091213E-01  5.110000000E-04  0.00000E+00  9.000E+00
     -11     1     3     3     0     0  5.357605255E-01  1.512676643E-01  1.473407038E+00  1.575071365E+00  5.110000000E-04  0.00000E+00  9.000E+00
       5     1     1     2   511     0  1.514158724E-01  9.663227237E-02  3.151296937E-02  1.823667451E-01  0.000000000E+00  0.00000E+00  9.000E+00
      21     1     1     2   502   511 -3.716291309E-01  5.318447494E-02  5.662355813E+00  5.674787234E+00  0.000000000E+00  0.00000E+00  9.000E+00
#rwgt            2         198   397972.99845896580                3    14441331           0
<weights>
0.11145E+08
0.12193E+08
0.96551E+07
0.14819E+08
0.77362E+07
0.91702E+07
0.13910E+08
0.11192E+08
0.11095E+08
0.10825E+08
0.10820E+08
0.10959E+08
0.11015E+08
0.10845E+08
0.10830E+08
0.11229E+08
0.11203E+08
0.11461E+08
0.11480E+08
0.11474E+08
0.11437E+08
0.11493E+08
0.11514E+08
0.11360E+08
0.11348E+08
0.11304E+08
0.11199E+08
0.11433E+08
0.11357E+08
0.11469E+08
0.11506E+08
0.11182E+08
0.11216E+08
0.11137E+08
0.11177E+08
0.11228E+08
0.11080E+08
0.11115E+08
0.11099E+08
0.11164E+08
0.11130E+08
0.11180E+08
0.11109E+08
0.11500E+08
0.10819E+08
</weights>
</event>
<event>
      7  10001  1.11453E+07  6.16792E+00 -1.00000E+00  2.22578E-01
      21    -1     0     0   512   501  0.000000000E+00  0.000000000E+00  1.273855406E+01  1.273855406E+01  0.000000000E+00  0.00000E+00  9.000E+00
      -4    -1     0     0     0   502  0.000000000E+00  0.000000000E+00 -1.325213223E+01  1.325213223E+01  0.000000000E+00  0.00000E+00  9.000E+00
      23     2     1     2     0     0  6.978116780E-02  1.028741245E-01 -7.200060759E+00  7.280166571E+00  1.069812076E+00  0.00000E+00  9.000E+00
      11     1     3     3     0     0  5.104389656E-01 -4.357433083E-02 -5.278197880E+00  5.303001017E+00  5.110000000E-04  0.00000E+00  9.000E+00
     -11     1     3     3     0     0 -4.406577978E-01  1.464484553E-01 -1.921862878E+00  1.977165554E+00  5.110000000E-04  0.00000E+00  9.000E+00
      -4     1     1     2     0   501 -2.090913464E+00 -5.930244696E+00 -3.201789716E+00  7.056286463E+00  0.000000000E+00  0.00000E+00  9.000E+00
      21     1     1     2   512   502  2.021132296E+00  5.827370571E+00  9.888272302E+00  1.165423325E+01  0.000000000E+00  0.00000E+00  9.000E+00
#rwgt            2         156   2753175.8642945811                3    14445306           0
<weights>
0.11145E+08
0.10566E+08
0.11587E+08
0.12841E+08
0.92844E+07
0.91702E+07
0.13910E+08
0.11235E+08
0.11054E+08
0.10828E+08
0.10873E+08
0.10943E+08
0.11064E+08
0.10867E+08
0.10877E+08
0.11211E+08
0.11192E+08
0.11408E+08
0.11436E+08
0.11432E+08
0.11390E+08
0.11422E+08
0.11481E+08
0.11244E+08
0.11408E+08
0.11375E+08
0.11037E+08
0.11395E+08
0.11267E+08
0.11376E+08
0.11438E+08
0.11139E+08
0.11239E+08
0.11149E+08
0.11155E+08
0.11298E+08
0.11010E+08
0.10923E+08
0.11274E+08
0.11132E+08
0.11159E+08
0.11154E+08
0.11137E+08
0.11458E+08
0.10851E+08
</weights>
</event>
<event>
      6  10001 -1.11453E+07  8.94427E-01 -1.00000E+00  2.15643E-01
       2    -1     0     0   501     0  0.000000000E+00  0.000000000E+00  2.151963457E-02  2.151963457E-02  0.000000000E+00  0.00000E+00  9.000E+00
      -2    -1     0     0     0   502  0.000000000E+00  0.000000000E+00 -2.700450387E+01  2.700450387E+01  0.000000000E+00  0.00000E+00  9.000E+00
      23     2     1     2     0     0 -3.060041205E-01 -1.467245209E-01 -2.317044831E+01  2.319841370E+01  1.086994418E+00  0.00000E+00  9.000E+00
      11     1     3     3     0     0  1.223094692E-01 -5.295305215E-01 -1.348262123E+01  1.349357024E+01  5.110000000E-04  0.00000E+00  9.000E+00
     -11     1     3     3     0     0 -4.283135897E-01  3.828060006E-01 -9.687827074E+00  9.704843463E+00  5.110000000E-04  0.00000E+00  9.000E+00
      21     1     1     2   501   502  3.060041205E-01  1.467245209E-01 -3.812535931E+00  3.827609807E+00  4.214684851E-08  0.00000E+00  9.000E+00
#rwgt            1          23  -1541184.2862640601                3    14448370           0
<weights>
-.11145E+08
-.13190E+08
-.90470E+07
-.16030E+08
-.72489E+07
-.91702E+07
-.13910E+08
-.11220E+08
-.11070E+08
-.10935E+08
-.10992E+08
-.11017E+08
-.11058E+08
-.10982E+08
-.10993E+08
-.11115E+08
-.11241E+08
-.11311E+08
-.11272E+08
-.11251E+08
-.11312E+08
-.11289E+08
-.11332E+08
-.11222E+08
-.11278E+08
-.11324E+08
-.11041E+08
-.11287E+08
-.11122E+08
-.11250E+08
-.11295E+08
-.11086E+08
-.11251E+08
-.11227E+08
-.11072E+08
-.11062E+08
-.11233E+08
-.10905E+08
-.11352E+08
-.11113E+08
-.11166E+08
-.11230E+08
-.11055E+08
-.11324E+08
-.10971E+08
</weights>
</event>
<event>
      7  10001  1.11453E+07  5.01331E+00 -1.00000E+00  2.36695E-01
       2    -1     0     0   501     0  0.000000000E+00  0.000000000E+00  5.635717283E-01  5.635717283E-01  0.000000000E+00  0.00000E+00  9.000E+00
      21    -1     0     0   502   501  0.000000000E+00  0.000000000E+00 -1.618181251E+01  1.618181251E+01  0.000000000E+00  0.00000E+00  9.000E+00
      23     2     1     2     0     0  7.815790431E-02 -2.741651590E-01 -5.971464494E-01  1.671677583E+00  1.535137410E+00  0.00000E+00  9.000E+00
      11     1     3     3     0     0  6.839762661E-01 -1.911728225E-01 -7.586903873E-01  1.039221798E+00  5.110000000E-04  0.00000E+00  9.000E+00
     -11     1     3     3     0     0 -6.058183618E-01 -8.299233647E-02  1.615439379E-01  6.324557854E-01  5.110000000E-04  0.00000E+00  9.000E+00
       2     1     1     2   511     0 -4.985161494E-02  1.135482614E-01 -1.228108173E-01  1.745304788E-01  0.000000000E+00  0.00000E+00  9.000E+00
      21     1     1     2   502   511 -2.830628937E-02  1.606168976E-01 -1.489828351E+01  1.489917617E+01  2.384185791E-07  0.00000E+00  9.000E+00
#rwgt            2         248   1076951.4415141023                3    14449829           0
<weights>
0.11145E+08
0.10932E+08
0.11188E+08
0.13286E+08
0.89644E+07
0.91702E+07
0.13910E+08
0.11214E+08
0.11075E+08
0.10914E+08
0.10954E+08
0.10992E+08
0.11092E+08
0.10950E+08
0.10958E+08
0.11206E+08
0.11148E+08
0.11329E+08
0.11337E+08
0.11334E+08
0.11316E+08
0.11335E+08
0.11377E+08
0.11204E+08
0.11334E+08
0.11285E+08
0.11069E+08
0.11301E+08
0.11234E+08
0.11297E+08
0.11347E+08
0.11135E+08
0.11216E+08
0.11148E+08
0.11151E+08
0.11259E+08
0.11044E+08
0.10954E+08
0.11275E+08
0.11121E+08
0.11168E+08
0.11156E+08
0.11135E+08
0.11365E+08
0.10936E+08
</weights>
</event>
<event>
      7  10001  1.11453E+07  1.57851E+00 -1.00000E+00  4.04364E-01
      21    -1     0     0   512   501  0.000000000E+00  0.000000000E+00  1.818560701E+00  1.818560701E+00  0.000000000E+00  0.00000E+00  9.000E+00
       4    -1     0     0   501     0  0.000000000E+00  0.000000000E+00 -1.044228891E+02  1.044228891E+02  0.000000000E+00  0.00000E+00  9.000E+00
      23     2     1     2     0     0  1.230317759E+00 -1.061277421E-01 -8.179056818E+01  8.182264518E+01  1.929579441E+00  0.00000E+00  9.000E+00
      11     1     3     3     0     0 -4.042190395E-01  4.084924077E-01 -2.227166810E+01  2.227908120E+01  5.110000000E-04  0.00000E+00  9.000E+00
     -11     1     3     3     0     0  1.634536798E+00 -5.146201498E-01 -5.951890008E+01  5.954356398E+01  5.110000000E-04  0.00000E+00  9.000E+00
       4     1     1     2   502     0 -2.760976465E+00  4.918642215E-01 -2.216452390E+01  2.234124082E+01  0.000000000E+00  0.00000E+00  9.000E+00
      21     1     1     2   512   502  1.530658706E+00 -3.857364793E-01  1.350763699E+00  2.077563784E+00  1.534168443E-07  0.00000E+00  9.000E+00
#rwgt            1          19   472940.60246129945                3    14450042           0
<weights>
0.11145E+08
0.10462E+08
0.12599E+08
0.92937E+07
0.12232E+08
0.11443E+08
0.10422E+08
0.11197E+08
0.11093E+08
0.11098E+08
0.11173E+08
0.10990E+08
0.11314E+08
0.11208E+08
0.11198E+08
0.11165E+08
0.11017E+08
0.11087E+08
0.10992E+08
0.10985E+08
0.11099E+08
0.11069E+08
0.10999E+08
0.11106E+08
0.11072E+08
0.11088E+08
0.11151E+08
0.11074E+08
0.11035E+08
0.11013E+08
0.11057E+08
0.11079E+08
0.11189E+08
0.11166E+08
0.11115E+08
0.11274E+08
0.11024E+08
0.10767E+08
0.11614E+08
0.10982E+08
0.11297E+08
0.11080E+08
0.11215E+08
0.11110E+08
0.11149E+08
</weights>
</event>
<event>
      6  10001 -1.11453E+07  8.94427E-01 -1.00000E+00  5.40458E-01
      -4    -1     0     0     0   502  0.000000000E+00  0.000000000E+00  5.179754474E+01  5.179754474E+01  0.000000000E+00  0.00000E+00  9.000E+00
       4    -1     0     0   501     0  0.000000000E+00  0.000000000E+00 -2.448011416E-02  2.448011416E-02  0.000000000E+00  0.00000E+00  9.000E+00
      23     2     1     2     0     0 -2.079994652E-01 -3.385620071E-01  2.083623658E+01  2.088264514E+01  1.333500998E+00  0.00000E+00  9.000E+00
      11     1     3     3     0     0 -4.832319088E-01  3.817797778E-01  1.008947336E+01  1.010825118E+01  5.110000000E-04  0.00000E+00  9.000E+00
     -11     1     3     3     0     0  2.752324436E-01 -7.203417850E-01  1.074676322E+01  1.077439396E+01  5.110000000E-04  0.00000E+00  9.000E+00
      21     1     1     2   501   502  2.079994652E-01  3.385620071E-01  3.093682804E+01  3.093937972E+01  3.371747881E-07  0.00000E+00  9.000E+00
#rwgt            1           4  -440928.29372026870                3    14463569           0
<weights>
-.11145E+08
-.13808E+08
-.84276E+07
-.16787E+08
-.67528E+07
-.91676E+07
-.13910E+08
-.11170E+08
-.11122E+08
-.10812E+08
-.10796E+08
-.10957E+08
-.10997E+08
-.10827E+08
-.10808E+08
-.11228E+08
-.11219E+08
-.11479E+08
-.11521E+08
-.11509E+08
-.11454E+08
-.11522E+08
-.11538E+08
-.11429E+08
-.11333E+08
-.11294E+08
-.11358E+08
-.11453E+08
-.11386E+08
-.11501E+08
-.11534E+08
-.11189E+08
-.11217E+08
-.11136E+08
-.11181E+08
-.11206E+08
-.11104E+08
-.11153E+08
-.11063E+08
-.11172E+08
-.11123E+08
-.11187E+08
-.11101E+08
-.11523E+08
-.10799E+08
</weights>
</event>
<event>
      7  10001  1.11453E+07  2.85576E+00 -1.00000E+00  2.98569E-01
       1    -1     0     0   501     0  0.000000000E+00  0.000000000E+00  1.986926844E-01  1.986926844E-01  0.000000000E+00  0.00000E+00  9.000E+00
      21    -1     0     0   502   501  0.000000000E+00  0.000000000E+00 -3.258626314E+01  3.258626314E+01  0.000000000E+00  0.00000E+00  9.000E+00
      23     2     1     2     0     0 -3.909457546E-01  2.251556702E-01 -2.692177023E+00  2.949605811E+00  1.117507789E+00  0.00000E+00  9.000E+00
      11     1     3     3     0     0 -7.087273520E-01  3.654230670E-01 -1.395917854E+00  1.607611705E+00  5.110000000E-04  0.00000E+00  9.000E+00
     -11     1     3     3     0     0  3.177815974E-01 -1.402673968E-01 -1.296259169E+00  1.341994106E+00  5.110000000E-04  0.00000E+00  9.000E+00
       1     1     1     2   511     0  8.465093742E-01 -1.323932196E+00 -1.241303483E+01  1.251210647E+01  0.000000000E+00  0.00000E+00  9.000E+00
      21     1     1     2   502   511 -4.555636196E-01  1.098776525E+00 -1.728235860E+01  1.732324354E+01  0.000000000E+00  0.00000E+00  9.000E+00
#rwgt            1          22   702555.87279524305                3    14465047           0
<weights>
0.11145E+08
0.12002E+08
0.10133E+08
0.12766E+08
0.93715E+07
0.10431E+08
0.11974E+08
0.11267E+08
0.11023E+08
0.10770E+08
0.10860E+08
0.10924E+08
0.11041E+08
0.10830E+08
0.10854E+08
0.11224E+08
0.11170E+08
0.11421E+08
0.11466E+08
0.11461E+08
0.11402E+08
0.11432E+08
0.11520E+08
0.11218E+08
0.11470E+08
0.11389E+08
0.11023E+08
0.11387E+08
0.11273E+08
0.11366E+08
0.11453E+08
0.11112E+08
0.11271E+08
0.11166E+08
0.11135E+08
0.11331E+08
0.10982E+08
0.10794E+08
0.11412E+08
0.11124E+08
0.11165E+08
0.11162E+08
0.11128E+08
0.11490E+08
0.10818E+08
</weights>
</event>
<event>
      6  10001 -1.11453E+07  8.94427E-01 -1.00000E+00  5.80282E-01
      -4    -1     0     0     0   502  0.000000000E+00  0.000000000E+00  5.118276298E+01  5.118276298E+01  0.000000000E+00  0.00000E+00  9.000E+00
       4    -1     0     0   501     0  0.000000000E+00  0.000000000E+00 -2.251496139E-02  2.251496139E-02  0.000000000E+00  0.00000E+00  9.000E+00
      23     2     1     2     0     0 -8.422294786E-02  6.170130390E-01  3.516436996E+01  3.519728264E+01  1.388521588E+00  0.00000E+00  9.000E+00
      11     1     3     3     0     0 -7.235581759E-01  1.946934134E-01  1.579398663E+01  1.581175057E+01  5.110000000E-04  0.00000E+00  9.000E+00
     -11     1     3     3     0     0  6.393352281E-01  4.223196256E-01  1.937038332E+01  1.938553207E+01  5.110000000E-04  0.00000E+00  9.000E+00
      21     1     1     2   501   502  8.422294786E-02 -6.170130390E-01  1.599587807E+01  1.600799531E+01  2.384185791E-07  0.00000E+00  9.000E+00
#rwgt            1           4  -367324.02885033208                3    14473427           0
<weights>
-.11145E+08
-.13638E+08
-.85786E+07
-.16585E+08
-.68739E+07
-.91645E+07
-.13909E+08
-.11169E+08
-.11122E+08
-.10811E+08
-.10795E+08
-.10957E+08
-.10996E+08
-.10826E+08
-.10806E+08
-.11228E+08
-.11220E+08
-.11481E+08
-.11524E+08
-.11511E+08
-.11456E+08
-.11523E+08
-.11540E+08
-.11432E+08
-.11332E+08
-.11294E+08
-.11363E+08
-.11455E+08
-.11387E+08
-.11503E+08
-.11536E+08
-.11190E+08
-.11217E+08
-.11136E+08
-.11182E+08
-.11206E+08
-.11105E+08
-.11155E+08
-.11061E+08
-.11172E+08
-.11122E+08
-.11188E+08
-.11101E+08
-.11524E+08
-.10797E+08
</weights>
</event>
<event>
      7  10001 -1.11453E+07  1.23271E+00 -1.00000E+00  4.87787E-01
      21    -1     0     0   511   501  0.000000000E+00  0.000000000E+00  3.683135538E+02  3.683135538E+02  0.000000000E+00  0.00000E+00  9.000E+00
      -2    -1     0     0     0   502  0.000000000E+00  0.000000000E+00 -6.530627375E+00  6.530627375E+00  0.000000000E+00  0.00000E+00  9.000E+00
      23     2     1     2     0     0 -5.914090644E-01 -9.303111550E-01 -4.408580162E+00  4.700432209E+00  1.201349398E+00  0.00000E+00  9.000E+00
      11     1     3     3     0     0 -5.981992186E-01 -4.287821408E-01 -3.959086774E+00  4.026917528E+00  5.110000000E-04  0.00000E+00  9.000E+00
     -11     1     3     3     0     0  6.790154180E-03 -5.015290142E-01 -4.494933877E-01  6.735146806E-01  5.110000000E-04  0.00000E+00  9.000E+00
      -2     1     1     2     0   501 -2.830421016E-01  6.145739098E-02 -1.964470825E+00  1.985707800E+00  0.000000000E+00  0.00000E+00  9.000E+00
      21     1     1     2   511   502  8.744511660E-01  8.688537640E-01  3.681559775E+02  3.681580412E+02  5.394796609E-06  0.00000E+00  9.000E+00
#rwgt            1          14  -79951.071563147532                3    14474120           0
<weights>
-.11145E+08
-.56906E+07
-.15085E+08
-.17717E+08
-.62313E+07
-.24613E+07
-.24209E+08
-.11498E+08
-.10793E+08
-.11056E+08
-.11203E+08
-.11006E+08
-.11308E+08
-.11137E+08
-.11192E+08
-.11315E+08
-.10824E+08
-.11050E+08
-.11138E+08
-.11159E+08
-.11039E+08
-.11049E+08
-.11131E+08
-.10903E+08
-.11340E+08
-.11005E+08
-.11194E+08
-.10966E+08
-.11205E+08
-.10975E+08
-.11092E+08
-.11155E+08
-.11112E+08
-.11121E+08
-.11145E+08
-.11762E+08
-.10513E+08
-.10715E+08
-.11594E+08
-.11051E+08
-.11239E+08
-.11027E+08
-.11272E+08
-.11133E+08
-.11137E+08
</weights>
</event>
<event>
      7  10001 -1.11453E+07  1.35504E+00 -1.00000E+00  4.57805E-01
      -2    -1     0     0     0   502  0.000000000E+00  0.000000000E+00  2.548605390E+01  2.548605390E+01  0.000000000E+00  0.00000E+00  9.000E+00
      21    -1     0     0   511   501  0.000000000E+00  0.000000000E+00 -2.658169751E+01  2.658169751E+01  0.000000000E+00  0.00000E+00  9.000E+00
      23     2     1     2     0     0  3.273481100E-01  7.016235128E-01  1.788820485E+01  1.793493290E+01  1.036587171E+00  0.00000E+00  9.000E+00
      11     1     3     3     0     0  4.958728892E-01  8.415649175E-01  1.101119519E+01  1.105443536E+01  5.110000000E-04  0.00000E+00  9.000E+00
     -11     1     3     3     0     0 -1.685247792E-01 -1.399414047E-01  6.877009668E+00  6.880497542E+00  5.110000000E-04  0.00000E+00  9.000E+00
      -2     1     1     2     0   501  5.770454990E-01  3.074328357E-01  7.543049914E+00  7.571333995E+00  0.000000000E+00  0.00000E+00  9.000E+00
      21     1     1     2   511   502 -9.043936091E-01 -1.009056348E+00 -2.652689837E+01  2.656148452E+01  4.768371582E-07  0.00000E+00  9.000E+00
#rwgt            1           7  -1246131.5162055125                3    14481371           0
<weights>
-.11145E+08
-.10883E+08
-.10920E+08
-.17066E+08
-.66259E+07
-.67613E+07
-.17608E+08
-.11238E+08
-.11044E+08
-.10956E+08
-.11011E+08
-.11011E+08
-.11118E+08
-.11002E+08
-.11013E+08
-.11211E+08
-.11100E+08
-.11279E+08
-.11247E+08
-.11252E+08
-.11267E+08
-.11271E+08
-.11307E+08
-.11112E+08
-.11311E+08
-.11233E+08
-.10875E+08
-.11233E+08
-.11200E+08
-.11229E+08
-.11282E+08
-.11124E+08
-.11207E+08
-.11152E+08
-.11141E+08
-.11263E+08
-.11036E+08
-.10912E+08
-.11333E+08
-.11105E+08
-.11182E+08
-.11152E+08
-.11139E+08
-.11306E+08
-.10988E+08
</weights>
</event>
<event>
      6  10001 -1.11453E+07  8.94427E-01 -1.00000E+00  6.03938E-01
      21    -1     0     0   502   501  0.000000000E+00  0.000000000E+00  8.234855140E-03  8.234855140E-03  0.000000000E+00  0.00000E+00  9.000E+00
      -4    -1     0     0     0   502  0.000000000E+00  0.000000000E+00 -1.335429168E+02  1.335429168E+02  0.000000000E+00  0.00000E+00  9.000E+00
      23     2     1     2     0     0 -6.224520319E-01  1.047816531E-01 -9.084059916E+01  9.085240307E+01  1.321462251E+00  0.00000E+00  9.000E+00
      11     1     3     3     0     0  3.002316316E-01 -3.270842299E-01 -2.965059655E+01  2.965392047E+01  5.110000000E-04  0.00000E+00  9.000E+00
     -11     1     3     3     0     0 -9.226836635E-01  4.318658830E-01 -6.119000261E+01  6.119848260E+01  5.110000000E-04  0.00000E+00  9.000E+00
      -4     1     1     2     0   501  6.224520319E-01 -1.047816531E-01 -4.269408276E+01  4.269874856E+01  0.000000000E+00  0.00000E+00  9.000E+00
#rwgt            1          12  -1242538.0637005866                3    14494347           0
<weights>
-.11145E+08
-.12233E+08
-.98560E+07
-.14867E+08
-.78971E+07
-.91702E+07
-.13910E+08
-.11093E+08
-.11194E+08
-.11357E+08
-.11309E+08
-.11083E+08
-.11430E+08
-.11384E+08
-.11358E+08
-.11119E+08
-.11027E+08
-.10942E+08
-.10839E+08
-.10837E+08
-.10962E+08
-.10918E+08
-.10820E+08
-.11103E+08
-.10862E+08
-.10948E+08
-.11213E+08
-.10965E+08
-.10972E+08
-.10921E+08
-.10898E+08
-.11138E+08
-.11078E+08
-.11124E+08
-.11157E+08
-.11152E+08
-.11131E+08
-.11089E+08
-.11267E+08
-.10971E+08
-.11308E+08
-.11054E+08
-.11242E+08
-.10914E+08
-.11343E+08
</weights>
</event>
<event>
      6  10001 -1.11453E+07  8.94427E-01 -1.00000E+00  5.90415E-01
       5    -1     0     0   501     0  0.000000000E+00  0.000000000E+00  8.703907712E+00  8.703907712E+00  0.000000000E+00  0.00000E+00  9.000E+00
      21    -1     0     0   502   501  0.000000000E+00  0.000000000E+00 -1.456430718E-01  1.456430718E-01  0.000000000E+00  0.00000E+00  9.000E+00
      23     2     1     2     0     0  1.254366372E-01 -5.828910639E-01  7.417761051E+00  7.562599044E+00  1.346933167E+00  0.00000E+00  9.000E+00
      11     1     3     3     0     0  2.674835933E-01 -7.088146922E-01  1.956809477E+00  2.098349192E+00  5.110000000E-04  0.00000E+00  9.000E+00
     -11     1     3     3     0     0 -1.420469561E-01  1.259236282E-01  5.460951574E+00  5.464249853E+00  5.110000000E-04  0.00000E+00  9.000E+00
       5     1     1     2   502     0 -1.254366372E-01  5.828910639E-01  1.140503589E+00  1.286951740E+00  0.000000000E+00  0.00000E+00  9.000E+00
#rwgt            1          30  -117479.23103664094                3    14496157           0
<weights>
-.11145E+08
-.74797E+07
-.13551E+08
-.15614E+08
-.77996E+07
-.53359E+07
-.19796E+08
-.11232E+08
-.11053E+08
-.10948E+08
-.11003E+08
-.11009E+08
-.11112E+08
-.10989E+08
-.11004E+08
-.11207E+08
-.11111E+08
-.11283E+08
-.11274E+08
-.11276E+08
-.11272E+08
-.11278E+08
-.11327E+08
-.11131E+08
-.11320E+08
-.11243E+08
-.10957E+08
-.11241E+08
-.11204E+08
-.11235E+08
-.11291E+08
-.11122E+08
-.11211E+08
-.11153E+08
-.11140E+08
-.11262E+08
-.11038E+08
-.10898E+08
-.11323E+08
-.11107E+08
-.11180E+08
-.11153E+08
-.11138E+08
-.11316E+08
-.10980E+08
</weights>
</event>
<event>
      7  10001  1.11453E+07  8.94427E-01 -1.00000E+00  6.07649E-01
      -2    -1     0     0     0   502  0.000000000E+00  0.000000000E+00  1.042804243E+00  1.042804243E+00  0.000000000E+00  0.00000E+00  9.000E+00
       4    -1     0     0   502     0  0.000000000E+00  0.000000000E+00 -3.721710667E+00  3.721710667E+00  0.000000000E+00  0.00000E+00  9.000E+00
      23     2     1     2     0     0  6.292370817E-02  8.810977903E-01 -1.617518090E+00  2.142846487E+00  1.093221654E+00  0.00000E+00  9.000E+00
      11     1     3     3     0     0  3.458553007E-03  5.949357928E-01 -1.730176906E+00  1.829610053E+00  5.110000000E-04  0.00000E+00  9.000E+00
     -11     1     3     3     0     0  5.946515516E-02  2.861619975E-01  1.126588160E-01  3.132364337E-01  5.110000000E-04  0.00000E+00  9.000E+00
      -2     1     1     2     0   501 -3.229895270E-01 -1.535950376E+00 -3.256794326E-01  1.602976259E+00  0.000000000E+00  0.00000E+00  9.000E+00
       4     1     1     2   501     0  2.600658189E-01  6.548525862E-01 -7.357089011E-01  1.018692165E+00  0.000000000E+00  0.00000E+00  9.000E+00
#rwgt            2         118   264731.90542172157                3    14497176           0
<weights>
0.11145E+08
0.11770E+08
0.10284E+08
0.14305E+08
0.82403E+07
0.91702E+07
0.13910E+08
0.11213E+08
0.11074E+08
0.10819E+08
0.10824E+08
0.10946E+08
0.11031E+08
0.10842E+08
0.10833E+08
0.11226E+08
0.11210E+08
0.11463E+08
0.11469E+08
0.11467E+08
0.11438E+08
0.11486E+08
0.11517E+08
0.11308E+08
0.11389E+08
0.11361E+08
0.11071E+08
0.11444E+08
0.11327E+08
0.11457E+08
0.11499E+08
0.11174E+08
0.11221E+08
0.11134E+08
0.11177E+08
0.11263E+08
0.11044E+08
0.11067E+08
0.11125E+08
0.11159E+08
0.11135E+08
0.11169E+08
0.11121E+08
0.11499E+08
0.10818E+08
</weights>
</event>
<event>
      7  10001  1.11453E+07  1.44464E+00 -1.00000E+00  4.38304E-01
       3    -1     0     0   501     0  0.000000000E+00  0.000000000E+00  2.860059940E+00  2.860059940E+00  0.000000000E+00  0.00000E+00  9.000E+00
       1    -1     0     0   502     0  0.000000000E+00  0.000000000E+00 -1.043791811E+02  1.043791811E+02  0.000000000E+00  0.00000E+00  9.000E+00
      23     2     1     2     0     0  5.454526125E-01  9.506185995E-01  1.049970098E+00  4.366798667E+00  4.094545044E+00  0.00000E+00  9.000E+00
      11     1     3     3     0     0  1.900976219E+00  1.458829064E-01 -6.819691400E-01  2.024864089E+00  5.110000000E-04  0.00000E+00  9.000E+00
     -11     1     3     3     0     0 -1.355523607E+00  8.047356931E-01  1.731939238E+00  2.341934579E+00  5.110000000E-04  0.00000E+00  9.000E+00
       3     1     1     2   502     0 -1.978637935E+00 -7.690530329E-01 -7.560612476E+00  7.852981068E+00  0.000000000E+00  0.00000E+00  9.000E+00
       1     1     1     2   501     0  1.433185322E+00 -1.815655666E-01 -9.500847883E+01  9.501946135E+01  0.000000000E+00  0.00000E+00  9.000E+00
#rwgt            1          26   241985.04680114906                3    14497503           0
<weights>
0.11145E+08
0.12678E+08
0.94370E+07
0.12616E+08
0.94675E+07
0.11101E+08
0.10946E+08
0.11230E+08
0.11056E+08
0.10728E+08
0.10733E+08
0.10907E+08
0.10978E+08
0.10751E+08
0.10741E+08
0.11246E+08
0.11238E+08
0.11553E+08
0.11577E+08
0.11575E+08
0.11520E+08
0.11587E+08
0.11635E+08
0.11358E+08
0.11461E+08
0.11415E+08
0.11063E+08
0.11529E+08
0.11390E+08
0.11552E+08
0.11604E+08
0.11188E+08
0.11238E+08
0.11133E+08
0.11185E+08
0.11281E+08
0.11030E+08
0.11059E+08
0.11083E+08
0.11176E+08
0.11119E+08
0.11185E+08
0.11104E+08
0.11602E+08
0.10725E+08
</weights>
</event>
<event>
      7  10001  1.11453E+07  1.89839E+00 -1.00000E+00  3.63925E-01
      21    -1     0     0   502   501  0.000000000E+00  0.000000000E+00  2.066896142E+01  2.066896142E+01  0.000000000E+00  0.00000E+00  9.000E+00
      -4    -1     0     0     0   502  0.000000000E+00  0.000000000E+00 -3.947269000E-01  3.947269000E-01  0.000000000E+00  0.00000E+00  9.000E+00
      23     2     1     2     0     0 -1.456867183E-03 -2.706804755E-01  1.673731271E+00  2.420929866E+00  1.728078414E+00  0.00000E+00  9.000E+00
      11     1     3     3     0     0  3.408075615E-01  3.368640617E-01 -1.220658032E-01  4.944972310E-01  5.110000000E-04  0.00000E+00  9.000E+00
     -11     1     3     3     0     0 -3.422644287E-01 -6.075445372E-01  1.795797074E+00  1.926432635E+00  5.110000000E-04  0.00000E+00  9.000E+00
      -4     1     1     2     0   511 -3.468390062E-02  6.043894127E-01  4.780461926E+00  4.818641485E+00  0.000000000E+00  0.00000E+00  9.000E+00
      21     1     1     2   511   501  3.614076780E-02 -3.337089372E-01  1.382004132E+01  1.382411697E+01  0.000000000E+00  0.00000E+00  9.000E+00
#rwgt            1          12   3862604.5466243573                3    14509451           0
<weights>
0.11145E+08
0.13002E+08
0.91697E+07
0.13192E+08
0.90124E+07
0.10919E+08
0.11226E+08
0.11185E+08
0.11102E+08
0.10754E+08
0.10717E+08
0.10926E+08
0.10965E+08
0.10762E+08
0.10731E+08
0.11244E+08
0.11254E+08
0.11568E+08
0.11584E+08
0.11578E+08
0.11534E+08
0.11616E+08
0.11622E+08
0.11456E+08
0.11383E+08
0.11358E+08
0.11227E+08
0.11548E+08
0.11435E+08
0.11601E+08
0.11627E+08
0.11216E+08
0.11218E+08
0.11125E+08
0.11200E+08
0.11224E+08
0.11088E+08
0.11234E+08
0.10975E+08
0.11196E+08
0.11103E+08
0.11192E+08
0.11097E+08
0.11605E+08
0.10727E+08
</weights>
</event>
<event>
      7  10001 -1.11453E+07  2.27232E+00 -1.00000E+00  3.31817E-01
       2    -1     0     0   501     0  0.000000000E+00  0.000000000E+00  3.772613051E+02  3.772613051E+02  0.000000000E+00  0.00000E+00  9.000E+00
      21    -1     0     0   512   501  0.000000000E+00  0.000000000E+00 -5.675883281E+01  5.675883281E+01  0.000000000E+00  0.00000E+00  9.000E+00
      23     2     1     2     0     0 -5.469444300E-01  7.885055305E-01  3.554854950E+02  3.554988335E+02  2.926196097E+00  0.00000E+00  9.000E+00
      11     1     3     3     0     0 -1.655667661E+00 -1.481312678E-03  2.298460954E+02  2.298520585E+02  5.110000000E-04  0.00000E+00  9.000E+00
     -11     1     3     3     0     0  1.108723231E+00  7.899868432E-01  1.256393996E+02  1.256467750E+02  5.110000000E-04  0.00000E+00  9.000E+00
       2     1     1     2   502     0 -1.450976197E+00  2.939765481E-01  2.172118839E+01  2.177158192E+01  0.000000000E+00  0.00000E+00  9.000E+00
      21     1     1     2   512   502  1.997920627E+00 -1.082482079E+00 -5.670421104E+01  5.674972250E+01  1.651812370E-06  0.00000E+00  9.000E+00
#rwgt            1          24  -6392867.5535979755                3    14528395           0
<weights>
-.11145E+08
-.56121E+07
-.17378E+08
-.11467E+08
-.10814E+08
-.59870E+07
-.18796E+08
-.11305E+08
-.10967E+08
-.11033E+08
-.11140E+08
-.11038E+08
-.11193E+08
-.11094E+08
-.11134E+08
-.11201E+08
-.11031E+08
-.11161E+08
-.11086E+08
-.11107E+08
-.11156E+08
-.11115E+08
-.11191E+08
-.10863E+08
-.11340E+08
-.11227E+08
-.10421E+08
-.11104E+08
-.11075E+08
-.11055E+08
-.11131E+08
-.11078E+08
-.11206E+08
-.11164E+08
-.11112E+08
-.11320E+08
-.10970E+08
-.10715E+08
-.11501E+08
-.11064E+08
-.11218E+08
-.11126E+08
-.11166E+08
-.11181E+08
-.11098E+08
</weights>
</event>
<event>
      6  10001 -1.11453E+07  8.94427E-01 -1.00000E+00  2.21166E-01
      21    -1     0     0   502   501  0.000000000E+00  0.000000000E+00  2.297080004E-03  2.297080004E-03  0.000000000E+00  0.00000E+00  9.000E+00
       2    -1     0     0   501     0  0.000000000E+00  0.000000000E+00 -3.009275757E+02  3.009275757E+02  0.000000000E+00  0.00000E+00  9.000E+00
      23     2     1     2     0     0 -2.252475680E-01 -2.312015245E-01 -2.288017791E+02  2.288056510E+02  1.291355785E+00  0.00000E+00  9.000E+00
      11     1     3     3     0     0 -4.945761287E-01  3.692796738E-01 -1.437783384E+02  1.437796633E+02  5.110000000E-04  0.00000E+00  9.000E+00
     -11     1     3     3     0     0  2.693285607E-01 -6.004811983E-01 -8.502344066E+01  8.502598766E+01  5.110000000E-04  0.00000E+00  9.000E+00
       2     1     1     2   502     0  2.252475680E-01  2.312015245E-01 -7.212349953E+01  7.212422184E+01  0.000000000E+00  0.00000E+00  9.000E+00
#rwgt            1          17  -10126141.124658378                3    14575064           0
<weights>
-.11145E+08
-.11717E+08
-.10427E+08
-.14241E+08
-.83545E+07
-.91702E+07
-.13910E+08
-.11127E+08
-.11162E+08
-.11170E+08
-.11161E+08
-.11049E+08
-.11260E+08
-.11164E+08
-.11162E+08
-.11334E+08
-.10859E+08
-.11343E+08
-.10828E+08
-.10789E+08
-.11365E+08
-.11104E+08
-.11157E+08
-.11125E+08
-.11117E+08
-.11212E+08
-.11096E+08
-.10907E+08
-.11369E+08
-.11087E+08
-.11161E+08
-.11031E+08
-.11254E+08
-.11348E+08
-.10885E+08
-.11124E+08
-.11162E+08
-.11166E+08
-.11126E+08
-.11202E+08
-.11093E+08
-.11150E+08
-.11140E+08
-.11124E+08
-.11166E+08
</weights>
</event>
<event>
      7  10001  1.11453E+07  2.75632E+00 -1.00000E+00  3.03265E-01
      21    -1     0     0   502   501  0.000000000E+00  0.000000000E+00  2.528264081E+00  2.528264081E+00  0.000000000E+00  0.00000E+00  9.000E+00
      -2    -1     0     0     0   502  0.000000000E+00  0.000000000E+00 -3.840355678E+01  3.840355678E+01  0.000000000E+00  0.00000E+00  9.000E+00
      23     2     1     2     0     0 -2.377149867E-01  2.174683135E-01 -3.812465088E+01  3.818030817E+01  2.035467197E+00  0.00000E+00  9.000E+00
      11     1     3     3     0     0 -3.792769129E-01  1.024689569E+00 -1.435037742E+01  1.439191343E+01  5.110000000E-04  0.00000E+00  9.000E+00
     -11     1     3     3     0     0  1.415619262E-01 -8.072212550E-01 -2.377427346E+01  2.378839475E+01  5.110000000E-04  0.00000E+00  9.000E+00
      -2     1     1     2     0   511  6.940387705E-02  6.089216982E-01  4.375196709E-01  7.530112849E-01  0.000000000E+00  0.00000E+00  9.000E+00
      21     1     1     2   511   501  1.683111097E-01 -8.263900117E-01  1.811838508E+00  1.998501403E+00  9.816687758E-07  0.00000E+00  9.000E+00
#rwgt            1          14   89364864.025936157                3    14576637           0
<weights>
0.11145E+08
0.12253E+08
0.95668E+07
0.13607E+08
0.86091E+07
0.10088E+08
0.12501E+08
0.11235E+08
0.11055E+08
0.10940E+08
0.11010E+08
0.11026E+08
0.11043E+08
0.10995E+08
0.11008E+08
0.11083E+08
0.11268E+08
0.11304E+08
0.11241E+08
0.11213E+08
0.11311E+08
0.11269E+08
0.11312E+08
0.11224E+08
0.11257E+08
0.11323E+08
0.11040E+08
0.11273E+08
0.11083E+08
0.11229E+08
0.11275E+08
0.11073E+08
0.11258E+08
0.11265E+08
0.11034E+08
0.11003E+08
0.11286E+08
0.10886E+08
0.11387E+08
0.11112E+08
0.11164E+08
0.11266E+08
0.11016E+08
0.11307E+08
0.10985E+08
</weights>
</event>
<event>
      6  10001  1.11453E+07  8.94427E-01 -1.00000E+00  5.98536E-01
      -1    -1     0     0     0   502  0.000000000E+00  0.000000000E+00  2.865603768E-01  2.865603768E-01  0.000000000E+00  0.00000E+00  9.000E+00
      21    -1     0     0   502   501  0.000000000E+00  0.000000000E+00 -3.050001209E+01  3.050001209E+01  0.000000000E+00  0.00000E+00  9.000E+00
      23     2     1     2     0     0  1.538220924E-01 -4.182423864E-01 -1.957316227E+01  2.013695523E+01  4.710594084E+00  0.00000E+00  9.000E+00
      11     1     3     3     0     0 -1.925680647E+00 -9.043053727E-01 -5.402700037E+00  5.806477599E+00  5.110000000E-04  0.00000E+00  9.000E+00
     -11     1     3     3     0     0  2.079502739E+00  4.860629863E-01 -1.417046224E+01  1.433047763E+01  5.110000000E-04  0.00000E+00  9.000E+00
      -1     1     1     2     0   501 -1.538220924E-01  4.182423864E-01 -1.064028944E+01  1.064961724E+01  0.000000000E+00  0.00000E+00  9.000E+00
#rwgt            1           9   177210.93059766796                3    14632285           0
<weights>
0.11145E+08
0.13117E+08
0.90303E+07
0.12248E+08
0.97947E+07
0.11737E+08
0.99697E+07
0.11315E+08
0.10974E+08
0.10564E+08
0.10668E+08
0.10830E+08
0.10940E+08
0.10626E+08
0.10658E+08
0.11255E+08
0.11250E+08
0.11610E+08
0.11710E+08
0.11704E+08
0.11576E+08
0.11640E+08
0.11783E+08
0.11304E+08
0.11658E+08
0.11556E+08
0.10970E+08
0.11581E+08
0.11382E+08
0.11556E+08
0.11674E+08
0.11126E+08
0.11323E+08
0.11170E+08
0.11142E+08
0.11398E+08
0.10925E+08
0.10729E+08
0.11386E+08
0.11159E+08
0.11134E+08
0.11182E+08
0.11108E+08
0.11711E+08
0.10616E+08
</weights>
</event>
<event>
      6  10001 -1.11453E+07  8.94427E-01 -1.00000E+00  1.74494E-01
      -3    -1     0     0     0   502  0.000000000E+00  0.000000000E+00  2.316689040E-02  2.316689040E-02  0.000000000E+00  0.00000E+00  9.000E+00
       3    -1     0     0   501     0  0.000000000E+00  0.000000000E+00 -2.881858844E+01  2.881858844E+01  0.000000000E+00  0.00000E+00  9.000E+00
      23     2     1     2     0     0  1.411241928E-01 -3.727837039E-01 -2.233567702E+01  2.236972450E+01  1.167571145E+00  0.00000E+00  9.000E+00
      11     1     3     3     0     0 -3.700016702E-01 -1.432447548E-02 -1.579067991E+01  1.579502069E+01  5.110000000E-04  0.00000E+00  9.000E+00
     -11     1     3     3     0     0  5.111258630E-01 -3.584592284E-01 -6.544997113E+00  6.574703806E+00  5.110000000E-04  0.00000E+00  9.000E+00
      21     1     1     2   501   502 -1.411241928E-01  3.727837039E-01 -6.459744535E+00  6.472030840E+00  0.000000000E+00  0.00000E+00  9.000E+00
#rwgt            1           6  -293188.40819942177                3    14649563           0
<weights>
-.11145E+08
-.13261E+08
-.89595E+07
-.16116E+08
-.71788E+07
-.91702E+07
-.13910E+08
-.11201E+08
-.11088E+08
-.10903E+08
-.11035E+08
-.11193E+08
-.10878E+08
-.10982E+08
-.10994E+08
-.11774E+08
-.10287E+08
-.11307E+08
-.11232E+08
-.11271E+08
-.11239E+08
-.11252E+08
-.11377E+08
-.11140E+08
-.11178E+08
-.99814E+07
-.11896E+08
-.10656E+08
-.11961E+08
-.11179E+08
-.11345E+08
-.11187E+08
-.11149E+08
-.11206E+08
-.11095E+08
-.11274E+08
-.11029E+08
-.10904E+08
-.11353E+08
-.11125E+08
-.11157E+08
-.11222E+08
-.11064E+08
-.11324E+08
-.10971E+08
</weights>
</event>
<event>
      7  10001  1.11453E+07  1.38399E+00 -1.00000E+00  4.51263E-01
      21    -1     0     0   502   501  0.000000000E+00  0.000000000E+00  9.677414715E+01  9.677414715E+01  0.000000000E+00  0.00000E+00  9.000E+00
      -4    -1     0     0     0   502  0.000000000E+00  0.000000000E+00 -8.860930833E-02  8.860930833E-02  0.000000000E+00  0.00000E+00  9.000E+00
      23     2     1     2     0     0 -1.375498526E-01 -2.396941148E-01  3.277849505E+00  3.452338753E+00  1.047841714E+00  0.00000E+00  9.000E+00
      11     1     3     3     0     0  3.299211884E-01 -3.954875253E-01  2.304739873E+00  2.361585170E+00  5.110000000E-04  0.00000E+00  9.000E+00
     -11     1     3     3     0     0 -4.674710410E-01  1.557934106E-01  9.731096320E-01  1.090753583E+00  5.110000000E-04  0.00000E+00  9.000E+00
      -4     1     1     2     0   511  2.331675225E-02  2.898139430E-01  1.607775156E+01  1.608038032E+01  0.000000000E+00  0.00000E+00  9.000E+00
      21     1     1     2   511   501  1.142331003E-01 -5.011982826E-02  7.732993678E+01  7.733003739E+01  9.536743164E-07  0.00000E+00  9.000E+00
#rwgt            2         154   723664.65694303438                3    14651362           0
<weights>
0.11145E+08
0.10916E+08
0.11188E+08
0.13267E+08
0.89642E+07
0.91702E+07
0.13910E+08
0.11175E+08
0.11114E+08
0.10801E+08
0.10781E+08
0.10951E+08
0.10992E+08
0.10815E+08
0.10793E+08
0.11232E+08
0.11225E+08
0.11497E+08
0.11531E+08
0.11521E+08
0.11470E+08
0.11540E+08
0.11554E+08
0.11428E+08
0.11344E+08
0.11306E+08
0.11308E+08
0.11471E+08
0.11395E+08
0.11520E+08
0.11552E+08
0.11195E+08
0.11217E+08
0.11134E+08
0.11185E+08
0.11211E+08
0.11099E+08
0.11169E+08
0.11046E+08
0.11176E+08
0.11119E+08
0.11188E+08
0.11101E+08
0.11538E+08
0.10785E+08
</weights>
</event>
<event>
      7  10001  1.11453E+07  1.18586E+00 -1.00000E+00  5.00758E-01
       1    -1     0     0   512     0  0.000000000E+00  0.000000000E+00  6.410664029E-02  6.410664029E-02  0.000000000E+00  0.00000E+00  9.000E+00
      -1    -1     0     0     0   502  0.000000000E+00  0.000000000E+00 -2.972929144E+02  2.972929144E+02  0.000000000E+00  0.00000E+00  9.000E+00
      23     2     1     2     0     0 -1.389177731E+00 -3.175092603E+00 -2.114235766E+02  2.114785584E+02  3.352744865E+00  0.00000E+00  9.000E+00
      11     1     3     3     0     0 -1.906581967E+00 -1.723353865E+00 -7.095673871E+01  7.100326593E+01  5.110000000E-04  0.00000E+00  9.000E+00
     -11     1     3     3     0     0  5.174042358E-01 -1.451738737E+00 -1.404668379E+02  1.404752925E+02  5.110000000E-04  0.00000E+00  9.000E+00
      21     1     1     2   501   502  1.257109994E+00  1.996613908E+00 -5.639792860E+01  5.644725983E+01  6.743495762E-07  0.00000E+00  9.000E+00
      21     1     1     2   512   501  1.320677365E-01  1.178478695E+00 -2.940730255E+01  2.943120279E+01  4.768371582E-07  0.00000E+00  9.000E+00
#rwgt            1          21   28890.485756458263                3    14651518           0
<weights>
0.11145E+08
0.11564E+08
0.10685E+08
0.12076E+08
0.10008E+08
0.10575E+08
0.11753E+08
0.11041E+08
0.11241E+08
0.11251E+08
0.11267E+08
0.11121E+08
0.11164E+08
0.11246E+08
0.11260E+08
0.11030E+08
0.11224E+08
0.11121E+08
0.10947E+08
0.10918E+08
0.11140E+08
0.11017E+08
0.11057E+08
0.11100E+08
0.11077E+08
0.11038E+08
0.11160E+08
0.11010E+08
0.10987E+08
0.11039E+08
0.11058E+08
0.11279E+08
0.10970E+08
0.11386E+08
0.10910E+08
0.11287E+08
0.10990E+08
0.11339E+08
0.10931E+08
0.11177E+08
0.11092E+08
0.11397E+08
0.10875E+08
0.11016E+08
0.11267E+08
</weights>
</event>
<event>
      6  10001  1.11453E+07  8.94427E-01 -1.00000E+00  5.92911E-01
      -1    -1     0     0     0   502  0.000000000E+00  0.000000000E+00  5.662311735E-02  5.662311735E-02  0.000000000E+00  0.00000E+00  9.000E+00
      21    -1     0     0   502   501  0.000000000E+00  0.000000000E+00 -2.934819040E+01  2.934819040E+01  0.000000000E+00  0.00000E+00  9.000E+00
      23     2     1     2     0     0 -2.521289362E-01  1.907351349E-01 -9.559094235E+00  9.669808033E+00  1.424414234E+00  0.00000E+00  9.000E+00
      11     1     3     3     0     0  5.710692658E-01 -1.101860007E-01 -3.639094021E+00  3.685277007E+00  5.110000000E-04  0.00000E+00  9.000E+00
     -11     1     3     3     0     0 -8.231982021E-01  3.009211356E-01 -5.920000214E+00  5.984531027E+00  5.110000000E-04  0.00000E+00  9.000E+00
      -1     1     1     2     0   501  2.521289362E-01 -1.907351349E-01 -1.973247305E+01  1.973500549E+01  0.000000000E+00  0.00000E+00  9.000E+00
#rwgt            1           9   231222.17575037960                3    14656814           0
<weights>
0.11145E+08
0.12917E+08
0.92831E+07
0.12393E+08
0.95705E+07
0.11392E+08
0.10498E+08
0.11313E+08
0.10976E+08
0.10562E+08
0.10664E+08
0.10829E+08
0.10937E+08
0.10625E+08
0.10654E+08
0.11264E+08
0.11237E+08
0.11624E+08
0.11699E+08
0.11693E+08
0.11589E+08
0.11646E+08
0.11784E+08
0.11305E+08
0.11658E+08
0.11551E+08
0.10966E+08
0.11575E+08
0.11398E+08
0.11563E+08
0.11681E+08
0.11127E+08
0.11323E+08
0.11172E+08
0.11140E+08
0.11394E+08
0.10928E+08
0.10744E+08
0.11369E+08
0.11162E+08
0.11131E+08
0.11185E+08
0.11104E+08
0.11715E+08
0.10613E+08
</weights>
</event>
<event>
      7  10001  1.11453E+07  9.44007E-01 -1.00000E+00  5.85370E-01
      21    -1     0     0   502   501  0.000000000E+00  0.000000000E+00  8.922671499E-02  8.922671499E-02  0.000000000E+00  0.00000E+00  9.000E+00
      -2    -1     0     0     0   502  0.000000000E+00  0.000000000E+00 -4.145417538E+01  4.145417538E+01  0.000000000E+00  0.00000E+00  9.000E+00
      23     2     1     2     0     0  1.317006909E-01  2.515879163E-01 -4.037015438E+01  4.039032770E+01  1.244413749E+00  0.00000E+00  9.000E+00
      11     1     3     3     0     0 -2.929710252E-01  2.092923153E-01 -3.541464996E+01  3.541648016E+01  5.110000000E-04  0.00000E+00  9.000E+00
     -11     1     3     3     0     0  4.246717161E-01  4.229560095E-02 -4.955504424E+00  4.973847539E+00  5.110000000E-04  0.00000E+00  9.000E+00
      -2     1     1     2     0   511  1.499168861E-01 -1.617085293E-01 -7.066742340E-01  7.402791327E-01  0.000000000E+00  0.00000E+00  9.000E+00
      21     1     1     2   511   501 -2.816175770E-01 -8.987938699E-02 -2.881200505E-01  4.127952608E-01  5.525498455E-08  0.00000E+00  9.000E+00
#rwgt            2         160   1433408.4253415689                3    14667750           0
<weights>
0.11145E+08
0.11437E+08
0.10595E+08
0.13901E+08
0.84892E+07
0.91702E+07
0.13910E+08
0.11224E+08
0.11067E+08
0.10990E+08
0.11057E+08
0.11037E+08
0.11088E+08
0.11046E+08
0.11056E+08
0.11096E+08
0.11221E+08
0.11253E+08
0.11186E+08
0.11162E+08
0.11261E+08
0.11219E+08
0.11246E+08
0.11191E+08
0.11222E+08
0.11270E+08
0.11062E+08
0.11221E+08
0.11074E+08
0.11181E+08
0.11224E+08
0.11084E+08
0.11232E+08
0.11249E+08
0.11046E+08
0.11057E+08
0.11230E+08
0.10902E+08
0.11392E+08
0.11101E+08
0.11176E+08
0.11240E+08
0.11044E+08
0.11254E+08
0.11033E+08
</weights>
</event>
<event>
      7  10001  1.11453E+07  1.32046E+00 -1.00000E+00  4.65809E-01
       2    -1     0     0   501     0  0.000000000E+00  0.000000000E+00  9.637772326E+00  9.637772326E+00  0.000000000E+00  0.00000E+00  9.000E+00
      21    -1     0     0   502   512  0.000000000E+00  0.000000000E+00 -1.854548491E+02  1.854548491E+02  0.000000000E+00  0.00000E+00  9.000E+00
      23     2     1     2     0     0 -5.833081464E-01 -6.193567179E-01  9.242243052E+00  9.379135242E+00  1.351025576E+00  0.00000E+00  9.000E+00
      11     1     3     3     0     0  2.918819810E-01  2.309528252E-01  2.459455812E+00  2.487460040E+00  5.110000000E-04  0.00000E+00  9.000E+00
     -11     1     3     3     0     0 -8.751901273E-01 -8.503095431E-01  6.782787241E+00  6.891675202E+00  5.110000000E-04  0.00000E+00  9.000E+00
       2     1     1     2   502     0 -6.952298168E-01  2.892643868E-01 -1.118093243E-01  7.612619186E-01  0.000000000E+00  0.00000E+00  9.000E+00
      21     1     1     2   501   512  1.278537963E+00  3.300923310E-01 -1.849475105E+02  1.849522243E+02  0.000000000E+00  0.00000E+00  9.000E+00
#rwgt            1          24   1765911.1680080206                3    14668457           0
<weights>
0.11145E+08
0.16373E+08
0.56686E+07
0.13687E+08
0.83926E+07
0.13277E+08
0.76061E+07
0.11133E+08
0.11153E+08
0.10631E+08
0.10522E+08
0.10879E+08
0.10857E+08
0.10610E+08
0.10547E+08
0.11267E+08
0.11351E+08
0.11753E+08
0.11811E+08
0.11794E+08
0.11707E+08
0.11846E+08
0.11822E+08
0.11722E+08
0.11391E+08
0.11397E+08
0.11525E+08
0.11745E+08
0.11611E+08
0.11854E+08
0.11857E+08
0.11284E+08
0.11219E+08
0.11107E+08
0.11240E+08
0.11171E+08
0.11149E+08
0.11481E+08
0.10701E+08
0.11259E+08
0.11047E+08
0.11225E+08
0.11061E+08
0.11798E+08
0.10558E+08
</weights>
</event>
<event>
      6  10001 -1.11453E+07  8.94427E-01 -1.00000E+00  3.33023E-01
      21    -1     0     0   502   501  0.000000000E+00  0.000000000E+00  1.454689930E-02  1.454689930E-02  0.000000000E+00  0.00000E+00  9.000E+00
       2    -1     0     0   501     0  0.000000000E+00  0.000000000E+00 -2.853841538E+02  2.853841538E+02  0.000000000E+00  0.00000E+00  9.000E+00
      23     2     1     2     0     0 -4.727561645E-01  9.918901968E-02 -2.801250415E+02  2.801319367E+02  1.905188517E+00  0.00000E+00  9.000E+00
      11     1     3     3     0     0 -1.805460345E-01  3.810903818E-01 -1.349699559E+01  1.350358163E+01  5.110000000E-04  0.00000E+00  9.000E+00
     -11     1     3     3     0     0 -2.922101299E-01 -2.819013622E-01 -2.666280459E+02  2.666283550E+02  5.110000000E-04  0.00000E+00  9.000E+00
       2     1     1     2   502     0  4.727561645E-01 -9.918901968E-02 -5.244565391E+00  5.266763996E+00  0.000000000E+00  0.00000E+00  9.000E+00
#rwgt            1          17  -41183306.949797258                3    14745541           0
<weights>
-.11145E+08
-.12441E+08
-.96346E+07
-.15121E+08
-.77197E+07
-.91702E+07
-.13910E+08
-.11127E+08
-.11162E+08
-.11171E+08
-.11162E+08
-.11056E+08
-.11253E+08
-.11165E+08
-.11163E+08
-.11333E+08
-.10860E+08
-.11329E+08
-.10845E+08
-.10809E+08
-.11348E+08
-.11104E+08
-.11155E+08
-.11133E+08
-.11108E+08
-.11200E+08
-.11103E+08
-.10924E+08
-.11346E+08
-.11089E+08
-.11158E+08
-.11034E+08
-.11250E+08
-.11331E+08
-.10905E+08
-.11127E+08
-.11160E+08
-.11167E+08
-.11125E+08
-.11196E+08
-.11097E+08
-.11152E+08
-.11137E+08
-.11123E+08
-.11167E+08
</weights>
</event>
<event>
      7  10001  1.11453E+07  3.96395E+00 -1.00000E+00  2.61196E-01
      -2    -1     0     0     0   502  0.000000000E+00  0.000000000E+00  5.384839073E-01  5.384839073E-01  0.000000000E+00  0.00000E+00  9.000E+00
      21    -1     0     0   502   501  0.000000000E+00  0.000000000E+00 -6.102220880E+01  6.102220880E+01  0.000000000E+00  0.00000E+00  9.000E+00
      23     2     1     2     0     0  9.137695807E-01  1.269337177E-01 -3.460554438E+00  4.474435915E+00  2.682173136E+00  0.00000E+00  9.000E+00
      11     1     3     3     0     0 -6.184605584E-01 -8.201230903E-01 -1.420166501E+00  1.752703197E+00  5.110000000E-04  0.00000E+00  9.000E+00
     -11     1     3     3     0     0  1.532230139E+00  9.470568081E-01 -2.040387936E+00  2.721732718E+00  5.110000000E-04  0.00000E+00  9.000E+00
      -2     1     1     2     0   511 -9.115008430E-01  8.280837776E-01 -1.445151719E+01  1.450389277E+01  0.000000000E+00  0.00000E+00  9.000E+00
      21     1     1     2   511   501 -2.268737691E-03 -9.550174953E-01 -4.257165326E+01  4.258236402E+01  6.743495762E-07  0.00000E+00  9.000E+00
#rwgt            2         101   762383.12465593510                3    14754549           0
<weights>
0.11145E+08
0.10326E+08
0.11983E+08
0.12550E+08
0.96018E+07
0.91702E+07
0.13910E+08
0.11201E+08
0.11090E+08
0.11043E+08
0.11107E+08
0.11035E+08
0.11190E+08
0.11102E+08
0.11112E+08
0.11174E+08
0.11084E+08
0.11173E+08
0.11145E+08
0.11139E+08
0.11175E+08
0.11162E+08
0.11166E+08
0.11116E+08
0.11213E+08
0.11195E+08
0.11091E+08
0.11152E+08
0.11114E+08
0.11120E+08
0.11164E+08
0.11099E+08
0.11200E+08
0.11157E+08
0.11129E+08
0.11252E+08
0.11048E+08
0.10884E+08
0.11440E+08
0.11071E+08
0.11213E+08
0.11126E+08
0.11166E+08
0.11199E+08
0.11082E+08
</weights>
</event>
<event>
      7  10001  1.11453E+07  1.79368E+00 -1.00000E+00  3.75429E-01
      21    -1     0     0   502   512  0.000000000E+00  0.000000000E+00  1.471963100E+02  1.471963100E+02  0.000000000E+00  0.00000E+00  9.000E+00
      -2    -1     0     0     0   502  0.000000000E+00  0.000000000E+00 -3.775606019E+01  3.775606019E+01  0.000000000E+00  0.00000E+00  9.000E+00
      23     2     1     2     0     0 -9.065320089E-01 -5.282124143E-01 -3.415983201E+01  3.420868298E+01  1.496348723E+00  0.00000E+00  9.000E+00
      11     1     3     3     0     0  2.372949948E-01  2.473504102E-01 -3.261766336E+00  3.279727280E+00  5.110000000E-04  0.00000E+00  9.000E+00
     -11     1     3     3     0     0 -1.143827004E+00 -7.755628245E-01 -3.089806568E+01  3.092895570E+01  5.110000000E-04  0.00000E+00  9.000E+00
      -2     1     1     2     0   501 -8.846339640E-01  6.232021030E-01 -3.484250290E+00  3.648418588E+00  0.000000000E+00  0.00000E+00  9.000E+00
      21     1     1     2   501   512  1.791165973E+00 -9.498968866E-02  1.470843321E+02  1.470952686E+02  1.907348633E-06  0.00000E+00  9.000E+00
#rwgt            1          14   767879.21602485923                3    14754876           0
<weights>
0.11145E+08
0.19804E+08
0.25653E+07
0.14376E+08
0.79671E+07
0.15526E+08
0.41527E+07
0.11294E+08
0.10994E+08
0.10660E+08
0.10747E+08
0.10969E+08
0.10762E+08
0.10711E+08
0.10731E+08
0.10977E+08
0.11576E+08
0.11602E+08
0.11540E+08
0.11480E+08
0.11608E+08
0.11557E+08
0.11681E+08
0.11436E+08
0.11437E+08
0.11643E+08
0.10910E+08
0.11579E+08
0.11106E+08
0.11504E+08
0.11565E+08
0.11004E+08
0.11418E+08
0.11384E+08
0.10937E+08
0.10616E+08
0.11675E+08
0.10804E+08
0.11355E+08
0.11182E+08
0.11086E+08
0.11446E+08
0.10824E+08
0.11607E+08
0.10716E+08
</weights>
</event>
<event>
      7  10001  1.11453E+07  1.63334E+01 -1.00000E+00  1.73730E-01
      21    -1     0     0   502   501  0.000000000E+00  0.000000000E+00  3.994179861E-01  3.994179861E-01  0.000000000E+00  0.00000E+00  9.000E+00
       2    -1     0     0   501     0  0.000000000E+00  0.000000000E+00 -2.890127424E+02  2.890127424E+02  0.000000000E+00  0.00000E+00  9.000E+00
      23     2     1     2     0     0  4.179051896E+00  4.211958203E+00 -3.825245240E+01  3.874817831E+01  1.722248733E+00  0.00000E+00  9.000E+00
      11     1     3     3     0     0  1.426893519E+00  1.159412921E+00 -1.722288856E+01  1.732074346E+01  5.110000000E-04  0.00000E+00  9.000E+00
     -11     1     3     3     0     0  2.752158377E+00  3.052545282E+00 -2.102956384E+01  2.142743485E+01  5.110000000E-04  0.00000E+00  9.000E+00
       2     1     1     2   511     0 -2.795091818E+00  2.897435833E+00 -4.632748519E+01  4.650208121E+01  0.000000000E+00  0.00000E+00  9.000E+00
      21     1     1     2   502   511 -1.383960078E+00 -7.109394037E+00 -2.040333868E+02  2.041619009E+02  2.697398305E-06  0.00000E+00  9.000E+00
#rwgt            1          17   3027529.7813687632                3    14763915           0
<weights>
0.11145E+08
0.11642E+08
0.10508E+08
0.12475E+08
0.96928E+07
0.10385E+08
0.12045E+08
0.11128E+08
0.11161E+08
0.11167E+08
0.11162E+08
0.11064E+08
0.11240E+08
0.11163E+08
0.11161E+08
0.11345E+08
0.10842E+08
0.11314E+08
0.10868E+08
0.10835E+08
0.11331E+08
0.11106E+08
0.11156E+08
0.11145E+08
0.11098E+08
0.11181E+08
0.11114E+08
0.10949E+08
0.11316E+08
0.11094E+08
0.11157E+08
0.11032E+08
0.11253E+08
0.11307E+08
0.10933E+08
0.11132E+08
0.11154E+08
0.11166E+08
0.11125E+08
0.11189E+08
0.11103E+08
0.11156E+08
0.11134E+08
0.11125E+08
0.11165E+08
</weights>
</event>
<event>
      7  10001  1.11453E+07  8.94427E-01 -1.00000E+00  6.07649E-01
      21    -1     0     0   501   512  0.000000000E+00  0.000000000E+00  3.076537205E-01  3.076537205E-01  0.000000000E+00  0.00000E+00  9.000E+00
      -2    -1     0     0     0   502  0.000000000E+00  0.000000000E+00 -6.451742162E+01  6.451742162E+01  0.000000000E+00  0.00000E+00  9.000E+00
      23     2     1     2     0     0 -5.125965487E-01  3.088010493E-01 -6.172524258E+01  6.173942431E+01  1.180181626E+00  0.00000E+00  9.000E+00
      11     1     3     3     0     0 -6.636359015E-01  6.341022710E-01 -5.081241961E+01  5.082070921E+01  5.110000000E-04  0.00000E+00  9.000E+00
     -11     1     3     3     0     0  1.510393528E-01 -3.253012217E-01 -1.091282297E+01  1.091871509E+01  5.110000000E-04  0.00000E+00  9.000E+00
      21     1     1     2   501   502  4.009419853E-01 -6.960239698E-01 -2.893224258E-01  8.537630281E-01  2.032588849E-07  0.00000E+00  9.000E+00
      -2     1     1     2     0   512  1.116545634E-01  3.872229205E-01 -2.195202892E+00  2.231888006E+00  0.000000000E+00  0.00000E+00  9.000E+00
#rwgt            2         161   1019761.1872094203                3    14776848           0
<weights>
0.11145E+08
0.10950E+08
0.11144E+08
0.13308E+08
0.89294E+07
0.91702E+07
0.13910E+08
0.11208E+08
0.11083E+08
0.11070E+08
0.11130E+08
0.11065E+08
0.11127E+08
0.11128E+08
0.11132E+08
0.11077E+08
0.11201E+08
0.11189E+08
0.11082E+08
0.11056E+08
0.11203E+08
0.11141E+08
0.11143E+08
0.11164E+08
0.11142E+08
0.11196E+08
0.11092E+08
0.11147E+08
0.11027E+08
0.11112E+08
0.11144E+08
0.11098E+08
0.11192E+08
0.11270E+08
0.11022E+08
0.11054E+08
0.11224E+08
0.10953E+08
0.11368E+08
0.11093E+08
0.11181E+08
0.11255E+08
0.11028E+08
0.11168E+08
0.11111E+08
</weights>
</event>
<event>
      7  10001  1.11453E+07  8.94427E-01 -1.00000E+00  6.07649E-01
      21    -1     0     0   511   502  0.000000000E+00  0.000000000E+00  2.595770391E+00  2.595770391E+00  0.000000000E+00  0.00000E+00  9.000E+00
       1    -1     0     0   501     0  0.000000000E+00  0.000000000E+00 -1.760668613E+01  1.760668613E+01  0.000000000E+00  0.00000E+00  9.000E+00
      23     2     1     2     0     0 -2.116996857E-02  2.087707416E-01 -1.719910059E+01  1.731166277E+01  1.959738043E+00  0.00000E+00  9.000E+00
      11     1     3     3     0     0 -8.304880868E-01  6.381660123E-01 -9.917695498E+00  9.972845661E+00  5.110000000E-04  0.00000E+00  9.000E+00
     -11     1     3     3     0     0  8.093181183E-01 -4.293952707E-01 -7.281405093E+00  7.338817105E+00  5.110000000E-04  0.00000E+00  9.000E+00
      21     1     1     2   501   502  2.781199100E-01 -3.433437587E-01  2.456345740E+00  2.495770425E+00  2.904771073E-07  0.00000E+00  9.000E+00
       1     1     1     2   511     0 -2.569499415E-01  1.345730171E-01 -2.681608858E-01  3.950233285E-01  0.000000000E+00  0.00000E+00  9.000E+00
#rwgt            2         187   1736857.1052072854                3    14777821           0
<weights>
0.11145E+08
0.10750E+08
0.11400E+08
0.13065E+08
0.91346E+07
0.91702E+07
0.13910E+08
0.11187E+08
0.11100E+08
0.10958E+08
0.10965E+08
0.10957E+08
0.11129E+08
0.10977E+08
0.10983E+08
0.11069E+08
0.11250E+08
0.11336E+08
0.11225E+08
0.11190E+08
0.11335E+08
0.11306E+08
0.11347E+08
0.11215E+08
0.11291E+08
0.11361E+08
0.11020E+08
0.11212E+08
0.11235E+08
0.11267E+08
0.11320E+08
0.11116E+08
0.11225E+08
0.11200E+08
0.11049E+08
0.11072E+08
0.11226E+08
0.10978E+08
0.11260E+08
0.11124E+08
0.11158E+08
0.11215E+08
0.11071E+08
0.11331E+08
0.10969E+08
</weights>
</event>
<event>
      7  10001  1.11453E+07  9.39952E-01 -1.00000E+00  5.87113E-01
      -2    -1     0     0     0   502  0.000000000E+00  0.000000000E+00  1.004947479E-01  1.004947479E-01  0.000000000E+00  0.00000E+00  9.000E+00
      21    -1     0     0   501   511  0.000000000E+00  0.000000000E+00 -2.871802418E+02  2.871802418E+02  0.000000000E+00  0.00000E+00  9.000E+00
      23     2     1     2     0     0  5.866864935E-02 -2.618721452E-01 -3.648300565E+00  3.843127766E+00  1.177928258E+00  0.00000E+00  9.000E+00
      11     1     3     3     0     0  1.024287092E-01 -2.771291055E-01 -3.734015100E+00  3.745685679E+00  5.110000000E-04  0.00000E+00  9.000E+00
     -11     1     3     3     0     0 -4.376005989E-02  1.525696029E-02  8.571453468E-02  9.744208667E-02  5.110000000E-04  0.00000E+00  9.000E+00
      21     1     1     2   501   502  8.210892986E-01 -6.909031629E-02 -8.666013664E+01  8.666405393E+01  1.651812370E-06  0.00000E+00  9.000E+00
      -2     1     1     2     0   511 -8.797579479E-01  3.309624615E-01 -1.967713099E+02  1.967735549E+02  0.000000000E+00  0.00000E+00  9.000E+00
#rwgt            1           8   1458368.9083108248                3    14780314           0
<weights>
0.11145E+08
0.11774E+08
0.10560E+08
0.11640E+08
0.10260E+08
0.10994E+08
0.11110E+08
0.11178E+08
0.11113E+08
0.11115E+08
0.11153E+08
0.11186E+08
0.11059E+08
0.11150E+08
0.11154E+08
0.11099E+08
0.11169E+08
0.10996E+08
0.11302E+08
0.11323E+08
0.10984E+08
0.11138E+08
0.11111E+08
0.11254E+08
0.11025E+08
0.11038E+08
0.11194E+08
0.11331E+08
0.10843E+08
0.11148E+08
0.11104E+08
0.11158E+08
0.11125E+08
0.11010E+08
0.11318E+08
0.11136E+08
0.11150E+08
0.11056E+08
0.11253E+08
0.11055E+08
0.11220E+08
0.11207E+08
0.11079E+08
0.11143E+08
0.11140E+08
</weights>
</event>
<event>
      6  10001 -1.11453E+07  8.94427E-01 -1.00000E+00  5.75628E-01
      -2    -1     0     0     0   502  0.000000000E+00  0.000000000E+00  1.812651820E+02  1.812651820E+02  0.000000000E+00  0.00000E+00  9.000E+00
      21    -1     0     0   502   501  0.000000000E+00  0.000000000E+00 -1.038025829E-02  1.038025829E-02  0.000000000E+00  0.00000E+00  9.000E+00
      23     2     1     2     0     0 -2.172381844E-01 -3.663884948E-01  1.701625897E+02  1.701751749E+02  2.025281194E+00  0.00000E+00  9.000E+00
      11     1     3     3     0     0  1.075389141E-01 -6.921537426E-01  1.605998967E+02  1.606014242E+02  5.110000000E-04  0.00000E+00  9.000E+00
     -11     1     3     3     0     0 -3.247770986E-01  3.257652478E-01  9.562693047E+00  9.573750662E+00  5.110000000E-04  0.00000E+00  9.000E+00
      -2     1     1     2     0   501  2.172381844E-01  3.663884948E-01  1.109221200E+01  1.110038738E+01  0.000000000E+00  0.00000E+00  9.000E+00
#rwgt            1           7  -2123961.1900568958                3    14782671           0
<weights>
-.11145E+08
-.11946E+08
-.10128E+08
-.14529E+08
-.81158E+07
-.91643E+07
-.13909E+08
-.11173E+08
-.11118E+08
-.10825E+08
-.10815E+08
-.10962E+08
-.11008E+08
-.10843E+08
-.10826E+08
-.11226E+08
-.11210E+08
-.11460E+08
-.11501E+08
-.11489E+08
-.11437E+08
-.11499E+08
-.11518E+08
-.11407E+08
-.11329E+08
-.11287E+08
-.11342E+08
-.11433E+08
-.11370E+08
-.11476E+08
-.11511E+08
-.11183E+08
-.11217E+08
-.11138E+08
-.11177E+08
-.11209E+08
-.11100E+08
-.11129E+08
-.11087E+08
-.11166E+08
-.11128E+08
-.11185E+08
-.11104E+08
-.11503E+08
-.10816E+08
</weights>
</event>
<event>
      7  10001  1.11453E+07  1.52353E+01 -1.00000E+00  1.76487E-01
      21    -1     0     0   502   501  0.000000000E+00  0.000000000E+00  2.785698338E+00  2.785698338E+00  0.000000000E+00  0.00000E+00  9.000E+00
      -4    -1     0     0     0   502  0.000000000E+00  0.000000000E+00 -2.442396302E+01  2.442396302E+01  0.000000000E+00  0.00000E+00  9.000E+00
      23     2     1     2     0     0  1.115490349E+00 -7.248022977E-01 -1.910592039E+01  1.925518830E+01  1.989076500E+00  0.00000E+00  9.000E+00
      11     1     3     3     0     0 -1.396851479E-02 -1.120128071E+00 -6.850659783E+00  6.941644023E+00  5.110000000E-04  0.00000E+00  9.000E+00
     -11     1     3     3     0     0  1.129458864E+00  3.953257733E-01 -1.225526060E+01  1.231354427E+01  5.110000000E-04  0.00000E+00  9.000E+00
      -4     1     1     2     0   511  7.774402312E-01  9.404915580E-01 -4.823063980E+00  4.975026014E+00  0.000000000E+00  0.00000E+00  9.000E+00
      21     1     1     2   511   501 -1.892930581E+00 -2.156892603E-01  2.290719686E+00  2.979447050E+00  7.765778435E-07  0.00000E+00  9.000E+00
#rwgt            2         154   2573410.3728046729                3    14784691           0
<weights>
0.11143E+08
0.10904E+08
0.11152E+08
0.13252E+08
0.89354E+07
0.91683E+07
0.13907E+08
0.11242E+08
0.11044E+08
0.10855E+08
0.10930E+08
0.10946E+08
0.11100E+08
0.10912E+08
0.10931E+08
0.11197E+08
0.11158E+08
0.11342E+08
0.11370E+08
0.11364E+08
0.11330E+08
0.11349E+08
0.11408E+08
0.11195E+08
0.11380E+08
0.11343E+08
0.11042E+08
0.11328E+08
0.11212E+08
0.11291E+08
0.11363E+08
0.11108E+08
0.11245E+08
0.11160E+08
0.11132E+08
0.11311E+08
0.10994E+08
0.10824E+08
0.11411E+08
0.11101E+08
0.11183E+08
0.11139E+08
0.11148E+08
0.11398E+08
0.10897E+08
</weights>
</event>
<event>
      6  10001 -1.11453E+07  8.94427E-01 -1.00000E+00  1.41330E-01
       4    -1     0     0   501     0  0.000000000E+00  0.000000000E+00  1.620693389E-02  1.620693389E-02  0.000000000E+00  0.00000E+00  9.000E+00
      21    -1     0     0   502   501  0.000000000E+00  0.000000000E+00 -1.012094947E+02  1.012094947E+02  0.000000000E+00  0.00000E+00  9.000E+00
      23     2     1     2     0     0 -1.345714526E-01  3.258166460E-01 -8.133843668E+01  8.136772143E+01  2.154192162E+00  0.00000E+00  9.000E+00
      11     1     3     3     0     0  3.699192622E-01  7.293316962E-01 -7.290206902E+01  7.290665561E+01  5.110000000E-04  0.00000E+00  9.000E+00
     -11     1     3     3     0     0 -5.044907148E-01 -4.035150502E-01 -8.436367660E+00  8.461065822E+00  5.110000000E-04  0.00000E+00  9.000E+00
       4     1     1     2   502     0  1.345714526E-01 -3.258166460E-01 -1.985485106E+01  1.985798017E+01  0.000000000E+00  0.00000E+00  9.000E+00
#rwgt            1          28  -631787.71037664090                3    14786120           0
<weights>
-.11145E+08
-.12285E+08
-.97513E+07
-.14930E+08
-.78132E+07
-.91702E+07
-.13910E+08
-.11159E+08
-.11131E+08
-.11174E+08
-.11204E+08
-.11078E+08
-.11268E+08
-.11225E+08
-.11220E+08
-.11149E+08
-.11058E+08
-.11071E+08
-.11007E+08
-.11002E+08
-.11082E+08
-.11054E+08
-.11011E+08
-.11097E+08
-.11075E+08
-.11105E+08
-.11133E+08
-.11065E+08
-.11051E+08
-.11030E+08
-.11046E+08
-.11106E+08
-.11157E+08
-.11147E+08
-.11136E+08
-.11207E+08
-.11085E+08
-.10968E+08
-.11384E+08
-.11048E+08
-.11235E+08
-.11104E+08
-.11189E+08
-.11073E+08
-.11197E+08
</weights>
</event>
<event>
      6  10001 -1.11453E+07  8.94427E-01 -1.00000E+00  4.28952E-01
      -4    -1     0     0     0   502  0.000000000E+00  0.000000000E+00  5.620788824E+00  5.620788824E+00  0.000000000E+00  0.00000E+00  9.000E+00
       4    -1     0     0   501     0  0.000000000E+00  0.000000000E+00 -8.017807410E-01  8.017807410E-01  0.000000000E+00  0.00000E+00  9.000E+00
      23     2     1     2     0     0 -2.941610295E-01 -5.545585968E-02  4.832224651E+00  6.122935219E+00  3.748377589E+00  0.00000E+00  9.000E+00
      11     1     3     3     0     0 -6.091136298E-01 -1.827230576E+00  2.911251565E+00  3.490727278E+00  5.110000000E-04  0.00000E+00  9.000E+00
     -11     1     3     3     0     0  3.149526003E-01  1.771774716E+00  1.920973086E+00  2.632207941E+00  5.110000000E-04  0.00000E+00  9.000E+00
      21     1     1     2   501   502  2.941610295E-01  5.545585968E-02 -1.321656848E-02  2.996343461E-01  2.129095884E-08  0.00000E+00  9.000E+00
#rwgt            1           4  -330766.44520505192                3    14788660           0
<weights>
-.11145E+08
-.78795E+07
-.13068E+08
-.20308E+08
-.45675E+07
-.24529E+07
-.24222E+08
-.11211E+08
-.11079E+08
-.11046E+08
-.11131E+08
-.11058E+08
-.11171E+08
-.11100E+08
-.11128E+08
-.11183E+08
-.11056E+08
-.11144E+08
-.11159E+08
-.11154E+08
-.11146E+08
-.11127E+08
-.11186E+08
-.11072E+08
-.11239E+08
-.11149E+08
-.11094E+08
-.11095E+08
-.11120E+08
-.11078E+08
-.11141E+08
-.11084E+08
-.11204E+08
-.11167E+08
-.11114E+08
-.11239E+08
-.11058E+08
-.10790E+08
-.11451E+08
-.11069E+08
-.11212E+08
-.11142E+08
-.11149E+08
-.11181E+08
-.11099E+08
</weights>
</event>
<event>
      6  10001 -1.11453E+07  8.94427E-01 -1.00000E+00  6.41217E-01
      -2    -1     0     0     0   502  0.000000000E+00  0.000000000E+00  1.066093086E+02  1.066093086E+02  0.000000000E+00  0.00000E+00  9.000E+00
      21    -1     0     0   502   501  0.000000000E+00  0.000000000E+00 -8.750460267E-03  8.750460267E-03  0.000000000E+00  0.00000E+00  9.000E+00
      23     2     1     2     0     0  3.121865549E-01  2.811061307E-02  5.821964998E+01  5.823613553E+01  1.349661585E+00  0.00000E+00  9.000E+00
      11     1     3     3     0     0 -3.119668431E-01  2.911523831E-01  7.610856087E+00  7.622809433E+00  5.110000000E-04  0.00000E+00  9.000E+00
     -11     1     3     3     0     0  6.241533980E-01 -2.630417701E-01  5.060879390E+01  5.061332610E+01  5.110000000E-04  0.00000E+00  9.000E+00
      -2     1     1     2     0   501 -3.121865549E-01 -2.811061307E-02  4.838090813E+01  4.838192350E+01  0.000000000E+00  0.00000E+00  9.000E+00
#rwgt            1           7  -821882.71000588511                3    14789529           0
<weights>
-.11145E+08
-.12998E+08
-.90191E+07
-.15805E+08
-.72268E+07
-.91661E+07
-.13909E+08
-.11165E+08
-.11126E+08
-.10912E+08
-.10902E+08
-.10997E+08
-.11059E+08
-.10929E+08
-.10914E+08
-.11213E+08
-.11175E+08
-.11376E+08
-.11391E+08
-.11381E+08
-.11359E+08
-.11401E+08
-.11409E+08
-.11335E+08
-.11275E+08
-.11246E+08
-.11282E+08
-.11349E+08
-.11306E+08
-.11383E+08
-.11410E+08
-.11173E+08
-.11196E+08
-.11134E+08
-.11174E+08
-.11199E+08
-.11105E+08
-.11124E+08
-.11109E+08
-.11146E+08
-.11146E+08
-.11172E+08
-.11117E+08
-.11405E+08
-.10905E+08
</weights>
</event>
<event>
      7  10001  1.11453E+07  1.17453E+01 -1.00000E+00  1.87619E-01
      21    -1     0     0   502   501  0.000000000E+00  0.000000000E+00  2.643751582E+00  2.643751582E+00  0.000000000E+00  0.00000E+00  9.000E+00
       1    -1     0     0   501     0  0.000000000E+00  0.000000000E+00 -1.516448095E+01  1.516448095E+01  0.000000000E+00  0.00000E+00  9.000E+00
      23     2     1     2     0     0 -3.232707505E-01 -1.650599759E-01 -1.307305168E+01  1.314702726E+01  1.344580587E+00  0.00000E+00  9.000E+00
      11     1     3     3     0     0 -7.852029216E-01 -3.666239434E-01 -7.084022003E+00  7.136828760E+00  5.110000000E-04  0.00000E+00  9.000E+00
     -11     1     3     3     0     0  4.619321711E-01  2.015639675E-01 -5.989029674E+00  6.010198504E+00  5.110000000E-04  0.00000E+00  9.000E+00
       1     1     1     2   511     0 -6.508822779E-02  5.923000520E-01 -1.978022721E+00  2.065824221E+00  0.000000000E+00  0.00000E+00  9.000E+00
      21     1     1     2   502   511  3.883589783E-01 -4.272400761E-01  2.530345032E+00  2.595381044E+00  6.597025282E-07  0.00000E+00  9.000E+00
#rwgt            2         186   117307.57315681438                3    14790908           0
<weights>
0.11145E+08
0.10799E+08
0.11340E+08
0.13125E+08
0.90860E+07
0.91702E+07
0.13910E+08
0.11180E+08
0.11107E+08
0.10947E+08
0.10951E+08
0.10955E+08
0.11121E+08
0.10964E+08
0.10969E+08
0.11093E+08
0.11234E+08
0.11360E+08
0.11234E+08
0.11199E+08
0.11359E+08
0.11322E+08
0.11365E+08
0.11221E+08
0.11303E+08
0.11372E+08
0.11017E+08
0.11227E+08
0.11251E+08
0.11283E+08
0.11338E+08
0.11120E+08
0.11226E+08
0.11208E+08
0.11045E+08
0.11073E+08
0.11226E+08
0.10987E+08
0.11243E+08
0.11125E+08
0.11157E+08
0.11214E+08
0.11072E+08
0.11347E+08
0.10955E+08
</weights>
</event>
<event>
      7  10001  1.11453E+07  1.33982E+00 -1.00000E+00  4.61307E-01
      21    -1     0     0   502   501  0.000000000E+00  0.000000000E+00  5.976097129E+01  5.976097129E+01  0.000000000E+00  0.00000E+00  9.000E+00
       4    -1     0     0   501     0  0.000000000E+00  0.000000000E+00 -2.786573947E-02  2.786573947E-02  0.000000000E+00  0.00000E+00  9.000E+00
      23     2     1     2     0     0 -3.332041685E-01 -1.762054574E-02  1.496971720E+01  1.501974560E+01  1.178553865E+00  0.00000E+00  9.000E+00
      11     1     3     3     0     0  3.776674497E-01  2.523406109E-01  6.568605185E+00  6.584290609E+00  5.110000000E-04  0.00000E+00  9.000E+00
     -11     1     3     3     0     0 -7.108716182E-01 -2.699611566E-01  8.401112018E+00  8.435454990E+00  5.110000000E-04  0.00000E+00  9.000E+00
       4     1     1     2   512     0 -4.778697996E-02 -1.883358449E-01  5.716440160E+00  5.719741435E+00  0.000000000E+00  0.00000E+00  9.000E+00
      21     1     1     2   502   512  3.809911485E-01  2.059563906E-01  3.904694819E+01  3.904935000E+01  6.743495762E-07  0.00000E+00  9.000E+00
#rwgt            1          19   708459.32177347504                3    14791767           0
<weights>
0.11150E+08
0.13302E+08
0.89657E+07
0.12875E+08
0.92484E+07
0.11360E+08
0.10560E+08
0.11142E+08
0.11164E+08
0.10761E+08
0.10714E+08
0.10941E+08
0.10953E+08
0.10765E+08
0.10730E+08
0.11240E+08
0.11272E+08
0.11565E+08
0.11636E+08
0.11616E+08
0.11535E+08
0.11629E+08
0.11632E+08
0.11573E+08
0.11337E+08
0.11316E+08
0.11584E+08
0.11546E+08
0.11468E+08
0.11618E+08
0.11640E+08
0.11223E+08
0.11225E+08
0.11134E+08
0.11204E+08
0.11183E+08
0.11142E+08
0.11271E+08
0.10955E+08
0.11204E+08
0.11103E+08
0.11207E+08
0.11090E+08
0.11614E+08
0.10728E+08
</weights>
</event>
<event>
      6  10001 -1.11453E+07  8.94427E-01 -1.00000E+00  5.10403E-01
      21    -1     0     0   502   501  0.000000000E+00  0.000000000E+00  2.076075542E-03  2.076075542E-03  0.000000000E+00  0.00000E+00  9.000E+00
       1    -1     0     0   501     0  0.000000000E+00  0.000000000E+00 -6.993079483E+02  6.993079483E+02  0.000000000E+00  0.00000E+00  9.000E+00
      23     2     1     2     0     0  3.214003182E-01  2.912603661E-02 -6.823877540E+02  6.823888285E+02  1.167163270E+00  0.00000E+00  9.000E+00
      11     1     3     3     0     0  1.436737022E-01 -4.300198639E-01 -1.196358432E+02  1.196367023E+02  5.110000000E-04  0.00000E+00  9.000E+00
     -11     1     3     3     0     0  1.777266160E-01  4.591459005E-01 -5.627519107E+02  5.627521261E+02  5.110000000E-04  0.00000E+00  9.000E+00
       1     1     1     2   502     0 -3.214003182E-01 -2.912603661E-02 -1.691811821E+01  1.692119589E+01  0.000000000E+00  0.00000E+00  9.000E+00
#rwgt            1          16  -5844162.4631984541                3    14797284           0
<weights>
-.11145E+08
-.10917E+08
-.11340E+08
-.13268E+08
-.90860E+07
-.91702E+07
-.13910E+08
-.11390E+08
-.10918E+08
-.10985E+08
-.11443E+08
-.12641E+08
-.97010E+07
-.11161E+08
-.11169E+08
-.10611E+08
-.11583E+08
-.96156E+07
-.13245E+08
-.13663E+08
-.93847E+07
-.11245E+08
-.10972E+08
-.11834E+08
-.10387E+08
-.98753E+07
-.11960E+08
-.13319E+08
-.88885E+07
-.11466E+08
-.10878E+08
-.10852E+08
-.11444E+08
-.96164E+07
-.12971E+08
-.11112E+08
-.11178E+08
-.11097E+08
-.11225E+08
-.11425E+08
-.10897E+08
-.11113E+08
-.11178E+08
-.11119E+08
-.11173E+08
</weights>
</event>
<event>
      7  10001  1.11453E+07  1.39234E+00 -1.00000E+00  4.49414E-01
      -2    -1     0     0     0   502  0.000000000E+00  0.000000000E+00  1.206717297E+01  1.206717297E+01  0.000000000E+00  0.00000E+00  9.000E+00
      21    -1     0     0   502   501  0.000000000E+00  0.000000000E+00 -1.759931140E+00  1.759931140E+00  0.000000000E+00  0.00000E+00  9.000E+00
      23     2     1     2     0     0  8.251905477E-02  1.961614019E+00  1.111511733E+01  1.141922489E+01  1.731509383E+00  0.00000E+00  9.000E+00
      11     1     3     3     0     0  1.601088164E-01 -7.669740487E-02  4.341868385E+00  4.345496365E+00  5.110000000E-04  0.00000E+00  9.000E+00
     -11     1     3     3     0     0 -7.758976163E-02  2.038311424E+00  6.773248948E+00  7.073728522E+00  5.110000000E-04  0.00000E+00  9.000E+00
      -2     1     1     2     0   511  8.239669218E-02 -1.257409380E+00  8.007366746E-02  1.262647756E+00  0.000000000E+00  0.00000E+00  9.000E+00
      21     1     1     2   511   501 -1.649157470E-01 -7.042046388E-01 -8.879491715E-01  1.145231465E+00  1.576990671E-07  0.00000E+00  9.000E+00
#rwgt            2         101   2040949.9499980502                3    14797800           0
<weights>
0.11145E+08
0.11012E+08
0.11049E+08
0.13384E+08
0.88534E+07
0.91702E+07
0.13910E+08
0.11200E+08
0.11087E+08
0.10860E+08
0.10868E+08
0.10973E+08
0.11041E+08
0.10884E+08
0.10876E+08
0.11223E+08
0.11180E+08
0.11415E+08
0.11425E+08
0.11420E+08
0.11394E+08
0.11437E+08
0.11463E+08
0.11303E+08
0.11339E+08
0.11289E+08
0.11143E+08
0.11384E+08
0.11317E+08
0.11409E+08
0.11449E+08
0.11168E+08
0.11213E+08
0.11140E+08
0.11169E+08
0.11235E+08
0.11071E+08
0.11067E+08
0.11151E+08
0.11150E+08
0.11143E+08
0.11173E+08
0.11116E+08
0.11451E+08
0.10862E+08
</weights>
</event>
<event>
      6  10001  1.11453E+07  8.94427E-01 -1.00000E+00  6.05295E-01
       4    -1     0     0   501     0  0.000000000E+00  0.000000000E+00  9.963995657E-01  9.963995657E-01  0.000000000E+00  0.00000E+00  9.000E+00
      -4    -1     0     0     0   502  0.000000000E+00  0.000000000E+00 -2.501425875E+00  2.501425875E+00  0.000000000E+00  0.00000E+00  9.000E+00
      23     2     1     2     0     0  3.406683108E-01  3.903170489E-02 -2.335982470E+00  2.598900242E+00  1.086227415E+00  0.00000E+00  9.000E+00
      11     1     3     3     0     0  3.202855278E-01  2.568072719E-01 -2.344339438E+00  2.380012701E+00  5.110000000E-04  0.00000E+00  9.000E+00
     -11     1     3     3     0     0  2.038278301E-02 -2.177755671E-01  8.356968634E-03  2.188875407E-01  5.110000000E-04  0.00000E+00  9.000E+00
      21     1     1     2   501   502 -3.406683108E-01 -3.903170489E-02  8.309561606E-01  8.989251987E-01  2.107342426E-08  0.00000E+00  9.000E+00
#rwgt            1          27   465382.55696892005                3    14798469           0
<weights>
0.11145E+08
0.12961E+08
0.93126E+07
0.12836E+08
0.90202E+07
0.10971E+08
0.11145E+08
0.11209E+08
0.11076E+08
0.10744E+08
0.10715E+08
0.10911E+08
0.10978E+08
0.10753E+08
0.10729E+08
0.11243E+08
0.11261E+08
0.11577E+08
0.11577E+08
0.11575E+08
0.11542E+08
0.11615E+08
0.11632E+08
0.11400E+08
0.11432E+08
0.11421E+08
0.11077E+08
0.11565E+08
0.11408E+08
0.11595E+08
0.11627E+08
0.11211E+08
0.11223E+08
0.11122E+08
0.11202E+08
0.11262E+08
0.11048E+08
0.11183E+08
0.10992E+08
0.11193E+08
0.11106E+08
0.11182E+08
0.11108E+08
0.11610E+08
0.10721E+08
</weights>
</event>
<event>
      7  10001  1.11453E+07  8.12897E+00 -1.00000E+00  2.06081E-01
       2    -1     0     0   501     0  0.000000000E+00  0.000000000E+00  4.498761973E+02  4.498761973E+02  0.000000000E+00  0.00000E+00  9.000E+00
      21    -1     0     0   511   502  0.000000000E+00  0.000000000E+00 -1.846296854E-01  1.846296854E-01  0.000000000E+00  0.00000E+00  9.000E+00
      23     2     1     2     0     0  9.541890470E-01  3.314039673E-01  7.888262167E+01  7.889664914E+01  1.092216895E+00  0.00000E+00  9.000E+00
      11     1     3     3     0     0  2.736147689E-01 -4.023846556E-01  2.508701874E+01  2.509173745E+01  5.110000000E-04  0.00000E+00  9.000E+00
     -11     1     3     3     0     0  6.805742782E-01  7.337886230E-01  5.379560293E+01  5.380491169E+01  5.110000000E-04  0.00000E+00  9.000E+00
      21     1     1     2   501   502  1.910664016E-02  7.739089691E+00  1.418364795E+02  1.420474597E+02  3.303624740E-06  0.00000E+00  9.000E+00
       2     1     1     2   511     0 -9.732956872E-01 -8.070493658E+00  2.289724665E+02  2.291167182E+02  0.000000000E+00  0.00000E+00  9.000E+00
#rwgt            1          23   324984.76543111261                3    14799721           0
<weights>
0.11145E+08
0.11650E+08
0.10536E+08
0.12733E+08
0.93646E+07
0.10128E+08
0.12439E+08
0.11054E+08
0.11277E+08
0.10811E+08
0.10783E+08
0.10965E+08
0.10978E+08
0.10823E+08
0.10796E+08
0.11209E+08
0.11254E+08
0.11494E+08
0.11524E+08
0.11508E+08
0.11471E+08
0.11537E+08
0.11543E+08
0.11466E+08
0.11306E+08
0.11312E+08
0.11342E+08
0.11476E+08
0.11376E+08
0.11521E+08
0.11542E+08
0.11179E+08
0.11232E+08
0.11136E+08
0.11184E+08
0.11125E+08
0.11196E+08
0.11174E+08
0.11045E+08
0.11174E+08
0.11120E+08
0.11201E+08
0.11087E+08
0.11531E+08
0.10792E+08
</weights>
</event>
<event>
      7  10001  1.11453E+07  5.01341E+00 -1.00000E+00  2.36694E-01
       2    -1     0     0   501     0  0.000000000E+00  0.000000000E+00  2.106606609E+00  2.106606609E+00  0.000000000E+00  0.00000E+00  9.000E+00
      21    -1     0     0   502   511  0.000000000E+00  0.000000000E+00 -3.787649866E+01  3.787649866E+01  0.000000000E+00  0.00000E+00  9.000E+00
      23     2     1     2     0     0  1.354395249E+00 -1.494019006E-01  4.267807087E-01  2.114200459E+00  1.559164644E+00  0.00000E+00  9.000E+00
      11     1     3     3     0     0  1.267561246E-01 -6.441201579E-01 -1.451746201E-01  6.723346075E-01  5.110000000E-04  0.00000E+00  9.000E+00
     -11     1     3     3     0     0  1.227639125E+00  4.947182574E-01  5.719553288E-01  1.441865851E+00  5.110000000E-04  0.00000E+00  9.000E+00
       2     1     1     2   502     0 -4.372407943E+00  4.152632068E+00 -1.740650200E+01  1.842141732E+01  0.000000000E+00  0.00000E+00  9.000E+00
      21     1     1     2   501   511  3.018012694E+00 -4.003230167E+00 -1.879017076E+01  1.944748748E+01  2.384185791E-07  0.00000E+00  9.000E+00
#rwgt            1          24   2357484.4231992629                3    14800842           0
<weights>
0.11145E+08
0.11548E+08
0.10658E+08
0.12343E+08
0.97590E+07
0.10368E+08
0.12072E+08
0.11231E+08
0.11057E+08
0.10822E+08
0.10861E+08
0.10951E+08
0.11043E+08
0.10856E+08
0.10864E+08
0.11222E+08
0.11186E+08
0.11422E+08
0.11450E+08
0.11447E+08
0.11401E+08
0.11438E+08
0.11499E+08
0.11253E+08
0.11412E+08
0.11356E+08
0.11049E+08
0.11396E+08
0.11293E+08
0.11395E+08
0.11455E+08
0.11148E+08
0.11234E+08
0.11146E+08
0.11159E+08
0.11283E+08
0.11025E+08
0.10951E+08
0.11233E+08
0.11141E+08
0.11150E+08
0.11166E+08
0.11124E+08
0.11470E+08
0.10842E+08
</weights>
</event>
<event>
      6  10001 -1.11453E+07  8.94427E-01 -1.00000E+00  1.90901E-01
      -1    -1     0     0     0   502  0.000000000E+00  0.000000000E+00  2.529260128E-03  2.529260128E-03  0.000000000E+00  0.00000E+00  9.000E+00
       1    -1     0     0   501     0  0.000000000E+00  0.000000000E+00 -2.936417203E+02  2.936417203E+02  0.000000000E+00  0.00000E+00  9.000E+00
      23     2     1     2     0     0  1.536238983E-01 -3.388696796E-01 -2.370697930E+02  2.370736280E+02  1.296106051E+00  0.00000E+00  9.000E+00
      11     1     3     3     0     0 -1.459082453E-01 -7.392083820E-01 -1.821705107E+02  1.821720689E+02  5.110000000E-04  0.00000E+00  9.000E+00
     -11     1     3     3     0     0  2.995321436E-01  4.003387024E-01 -5.489928234E+01  5.490155910E+01  5.110000000E-04  0.00000E+00  9.000E+00
      21     1     1     2   501   502 -1.536238983E-01  3.388696796E-01 -5.656939797E+01  5.657062153E+01  9.536743164E-07  0.00000E+00  9.000E+00
#rwgt            1          10  -81499.969145871277                3    14833006           0
<weights>
-.11145E+08
-.11738E+08
-.10375E+08
-.14267E+08
-.83130E+07
-.91702E+07
-.13910E+08
-.11246E+08
-.11049E+08
-.11148E+08
-.11266E+08
-.11574E+08
-.10686E+08
-.11186E+08
-.11198E+08
-.10222E+08
-.12269E+08
-.10326E+08
-.12071E+08
-.12225E+08
-.10215E+08
-.11173E+08
-.11001E+08
-.11484E+08
-.10716E+08
-.10628E+08
-.11435E+08
-.11832E+08
-.10188E+08
-.11242E+08
-.11002E+08
-.11053E+08
-.11223E+08
-.10324E+08
-.12047E+08
-.11164E+08
-.11121E+08
-.11175E+08
-.11124E+08
-.11299E+08
-.11000E+08
-.11197E+08
-.11088E+08
-.11089E+08
-.11199E+08
</weights>
</event>
<event>
      6  10001 -1.11453E+07  8.94427E-01 -1.00000E+00  2.00665E-01
      21    -1     0     0   502   501  0.000000000E+00  0.000000000E+00  3.329776300E-03  3.329776300E-03  0.000000000E+00  0.00000E+00  9.000E+00
       2    -1     0     0   501     0  0.000000000E+00  0.000000000E+00 -2.815486335E+02  2.815486335E+02  0.000000000E+00  0.00000E+00  9.000E+00
      23     2     1     2     0     0  2.020020130E-01  3.569337909E-01 -2.445566356E+02  2.445610215E+02  1.406057367E+00  0.00000E+00  9.000E+00
      11     1     3     3     0     0  1.313193875E-01  5.125366271E-01 -2.407197574E+02  2.407203389E+02  5.110000000E-04  0.00000E+00  9.000E+00
     -11     1     3     3     0     0  7.068262549E-02 -1.556028362E-01 -3.836878168E+00  3.840682571E+00  5.110000000E-04  0.00000E+00  9.000E+00
       2     1     1     2   502     0 -2.020020130E-01 -3.569337909E-01 -3.698866811E+01  3.699094180E+01  0.000000000E+00  0.00000E+00  9.000E+00
#rwgt            1          17  -12178793.292144191                3    14834224           0
<weights>
-.11145E+08
-.11592E+08
-.10564E+08
-.14088E+08
-.84643E+07
-.91702E+07
-.13910E+08
-.11127E+08
-.11162E+08
-.11171E+08
-.11163E+08
-.11059E+08
-.11249E+08
-.11165E+08
-.11163E+08
-.11332E+08
-.10860E+08
-.11322E+08
-.10852E+08
-.10817E+08
-.11341E+08
-.11104E+08
-.11154E+08
-.11136E+08
-.11105E+08
-.11194E+08
-.11106E+08
-.10931E+08
-.11336E+08
-.11090E+08
-.11156E+08
-.11036E+08
-.11249E+08
-.11324E+08
-.10914E+08
-.11128E+08
-.11159E+08
-.11168E+08
-.11124E+08
-.11194E+08
-.11099E+08
-.11153E+08
-.11137E+08
-.11122E+08
-.11168E+08
</weights>
</event>
<event>
      6  10001 -1.11453E+07  8.94427E-01 -1.00000E+00  6.03270E-01
      21    -1     0     0   502   501  0.000000000E+00  0.000000000E+00  5.459446117E-03  5.459446117E-03  0.000000000E+00  0.00000E+00  9.000E+00
       4    -1     0     0   501     0  0.000000000E+00  0.000000000E+00 -1.463483213E+02  1.463483213E+02  0.000000000E+00  0.00000E+00  9.000E+00
      23     2     1     2     0     0  1.007500277E-01 -5.097058819E-01 -1.184976147E+02  1.185036867E+02  1.081256471E+00  0.00000E+00  9.000E+00
      11     1     3     3     0     0 -2.226792653E-01  1.734614975E-01 -1.172722152E+01  1.173061805E+01  5.110000000E-04  0.00000E+00  9.000E+00
     -11     1     3     3     0     0  3.234292930E-01 -6.831673794E-01 -1.067703932E+02  1.067730687E+02  5.110000000E-04  0.00000E+00  9.000E+00
       4     1     1     2   502     0 -1.007500277E-01  5.097058819E-01 -2.784524709E+01  2.785009401E+01  0.000000000E+00  0.00000E+00  9.000E+00
#rwgt            1          19  -1589625.8016373373                3    14836622           0
<weights>
-.11145E+08
-.12757E+08
-.93295E+07
-.15505E+08
-.74753E+07
-.91702E+07
-.13910E+08
-.11068E+08
-.11218E+08
-.11418E+08
-.11339E+08
-.11100E+08
-.11463E+08
-.11426E+08
-.11396E+08
-.11109E+08
-.11027E+08
-.10907E+08
-.10802E+08
-.10802E+08
-.10929E+08
-.10881E+08
-.10777E+08
-.11105E+08
-.10809E+08
-.10912E+08
-.11229E+08
-.10940E+08
-.10956E+08
-.10899E+08
-.10859E+08
-.11153E+08
-.11051E+08
-.11113E+08
-.11168E+08
-.11125E+08
-.11155E+08
-.11162E+08
-.11187E+08
-.10963E+08
-.11316E+08
-.11046E+08
-.11251E+08
-.10868E+08
-.11388E+08
</weights>
</event>
<event>
      7  10001  1.11453E+07  6.20209E+00 -1.00000E+00  2.22221E-01
      -4    -1     0     0     0   502  0.000000000E+00  0.000000000E+00  4.302061151E+01  4.302061151E+01  0.000000000E+00  0.00000E+00  9.000E+00
      21    -1     0     0   502   511  0.000000000E+00  0.000000000E+00 -3.562098371E+01  3.562098371E+01  0.000000000E+00  0.00000E+00  9.000E+00
      23     2     1     2     0     0 -1.497498893E+00  1.451405792E+00  8.331725808E+00  8.851562226E+00  2.140891685E+00  0.00000E+00  9.000E+00
      11     1     3     3     0     0 -9.715432918E-01  1.960148264E+00  5.320885560E+00  5.753077524E+00  5.110000000E-04  0.00000E+00  9.000E+00
     -11     1     3     3     0     0 -5.259556010E-01 -5.087424721E-01  3.010840248E+00  3.098484703E+00  5.110000000E-04  0.00000E+00  9.000E+00
      -4     1     1     2     0   501 -1.794621411E+00 -6.707629471E+00  3.380136905E+01  3.450718054E+01  0.000000000E+00  0.00000E+00  9.000E+00
      21     1     1     2   501   511  3.292120304E+00  5.256223679E+00 -3.473346705E+01  3.528285245E+01  0.000000000E+00  0.00000E+00  9.000E+00
#rwgt            1           3   347661.24459210335                3    14837612           0
<weights>
0.11145E+08
0.12881E+08
0.95488E+07
0.11320E+08
0.10310E+08
0.12031E+08
0.95180E+07
0.11193E+08
0.11095E+08
0.10689E+08
0.10670E+08
0.10903E+08
0.10929E+08
0.10710E+08
0.10681E+08
0.11256E+08
0.11258E+08
0.11610E+08
0.11648E+08
0.11638E+08
0.11573E+08
0.11666E+08
0.11681E+08
0.11501E+08
0.11414E+08
0.11359E+08
0.11311E+08
0.11578E+08
0.11474E+08
0.11640E+08
0.11680E+08
0.11211E+08
0.11240E+08
0.11136E+08
0.11191E+08
0.11230E+08
0.11086E+08
0.11179E+08
0.11022E+08
0.11198E+08
0.11100E+08
0.11204E+08
0.11084E+08
0.11663E+08
0.10671E+08
</weights>
</event>
<event>
      6  10001 -1.11453E+07  8.94427E-01 -1.00000E+00  1.68764E-01
      21    -1     0     0   502   501  0.000000000E+00  0.000000000E+00  2.230527528E-02  2.230527528E-02  0.000000000E+00  0.00000E+00  9.000E+00
       2    -1     0     0   501     0  0.000000000E+00  0.000000000E+00 -3.698642122E+01  3.698642122E+01  0.000000000E+00  0.00000E+00  9.000E+00
      23     2     1     2     0     0 -1.778650215E-02  2.618463298E-01 -3.479150215E+01  3.482031827E+01  1.391784000E+00  0.00000E+00  9.000E+00
      11     1     3     3     0     0 -6.893542616E-01  1.808462154E-01 -1.443804770E+01  1.445562646E+01  5.110000000E-04  0.00000E+00  9.000E+00
     -11     1     3     3     0     0  6.715677595E-01  8.100011446E-02 -2.035345445E+01  2.036469181E+01  5.110000000E-04  0.00000E+00  9.000E+00
       2     1     1     2   502     0  1.778650215E-02 -2.618463298E-01 -2.172613799E+00  2.188408230E+00  0.000000000E+00  0.00000E+00  9.000E+00
#rwgt            1          17  -3641319.9096951759                3    14847408           0
<weights>
-.11145E+08
-.12508E+08
-.96526E+07
-.15201E+08
-.77342E+07
-.91702E+07
-.13910E+08
-.11195E+08
-.11096E+08
-.11037E+08
-.11081E+08
-.11132E+08
-.11042E+08
-.11071E+08
-.11080E+08
-.11089E+08
-.11232E+08
-.11105E+08
-.11347E+08
-.11357E+08
-.11094E+08
-.11211E+08
-.11213E+08
-.11237E+08
-.11150E+08
-.11153E+08
-.11137E+08
-.11344E+08
-.10948E+08
-.11204E+08
-.11188E+08
-.11144E+08
-.11165E+08
-.11071E+08
-.11253E+08
-.11116E+08
-.11177E+08
-.11002E+08
-.11282E+08
-.11080E+08
-.11198E+08
-.11210E+08
-.11076E+08
-.11226E+08
-.11064E+08
</weights>
</event>
<event>
      6  10001 -1.11453E+07  8.94427E-01 -1.00000E+00  3.74166E-01
       2    -1     0     0   501     0  0.000000000E+00  0.000000000E+00  2.243463720E+02  2.243463720E+02  0.000000000E+00  0.00000E+00  9.000E+00
      21    -1     0     0   502   501  0.000000000E+00  0.000000000E+00 -8.001986422E-03  8.001986422E-03  0.000000000E+00  0.00000E+00  9.000E+00
      23     2     1     2     0     0 -3.579041483E-01 -8.631656152E-01  1.810596394E+02  1.810655570E+02  1.126841354E+00  0.00000E+00  9.000E+00
      11     1     3     3     0     0 -4.635811477E-02 -1.540616073E-01  3.055623722E+00  3.059856311E+00  5.110000000E-04  0.00000E+00  9.000E+00
     -11     1     3     3     0     0 -3.115460336E-01 -7.091040079E-01  1.780040157E+02  1.780057007E+02  5.110000000E-04  0.00000E+00  9.000E+00
       2     1     1     2   502     0  3.579041483E-01  8.631656152E-01  4.327873064E+01  4.328881698E+01  0.000000000E+00  0.00000E+00  9.000E+00
#rwgt            1          24  -14796522.334785720                3    14848662           0
<weights>
-.11145E+08
-.13188E+08
-.87731E+07
-.16037E+08
-.70297E+07
-.91655E+07
-.13909E+08
-.11176E+08
-.11115E+08
-.10867E+08
-.10868E+08
-.10979E+08
-.11037E+08
-.10891E+08
-.10878E+08
-.11220E+08
-.11182E+08
-.11410E+08
-.11433E+08
-.11423E+08
-.11390E+08
-.11439E+08
-.11454E+08
-.11353E+08
-.11306E+08
-.11262E+08
-.11294E+08
-.11378E+08
-.11329E+08
-.11414E+08
-.11449E+08
-.11171E+08
-.11210E+08
-.11140E+08
-.11170E+08
-.11211E+08
-.11096E+08
-.11096E+08
-.11136E+08
-.11150E+08
-.11142E+08
-.11177E+08
-.11112E+08
-.11447E+08
-.10865E+08
</weights>
</event>
<event>
      7  10001  1.11453E+07  1.71276E+00 -1.00000E+00  3.85396E-01
      21    -1     0     0   502   501  0.000000000E+00  0.000000000E+00  1.044319505E-01  1.044319505E-01  0.000000000E+00  0.00000E+00  9.000E+00
      -4    -1     0     0     0   502  0.000000000E+00  0.000000000E+00 -6.493638626E+01  6.493638626E+01  0.000000000E+00  0.00000E+00  9.000E+00
      23     2     1     2     0     0  1.274301010E-01  2.276960554E-01 -6.371625166E+01  6.373349242E+01  1.459193981E+00  0.00000E+00  9.000E+00
      11     1     3     3     0     0  6.059211531E-01 -8.412768710E-02 -1.335569846E+01  1.336970081E+01  5.110000000E-04  0.00000E+00  9.000E+00
     -11     1     3     3     0     0 -4.784910521E-01  3.118237425E-01 -5.036055319E+01  5.036379162E+01  5.110000000E-04  0.00000E+00  9.000E+00
      -4     1     1     2     0   511 -1.506685670E-01 -1.539200237E-01 -1.184429502E+00  1.203854491E+00  0.000000000E+00  0.00000E+00  9.000E+00
      21     1     1     2   511   501  2.323846598E-02 -7.377603173E-02  6.872685101E-02  1.034712965E-01  9.096023097E-08  0.00000E+00  9.000E+00
#rwgt            2         154   1324816.7025337045                3    14849554           0
<weights>
0.11143E+08
0.11495E+08
0.10484E+08
0.13971E+08
0.84007E+07
0.91683E+07
0.13907E+08
0.11208E+08
0.11079E+08
0.11034E+08
0.11110E+08
0.10994E+08
0.11237E+08
0.11117E+08
0.11123E+08
0.11165E+08
0.11068E+08
0.11152E+08
0.11112E+08
0.11105E+08
0.11158E+08
0.11141E+08
0.11126E+08
0.11120E+08
0.11175E+08
0.11172E+08
0.11111E+08
0.11142E+08
0.11082E+08
0.11088E+08
0.11140E+08
0.11084E+08
0.11205E+08
0.11165E+08
0.11116E+08
0.11277E+08
0.11020E+08
0.10797E+08
0.11547E+08
0.11029E+08
0.11249E+08
0.11100E+08
0.11189E+08
0.11187E+08
0.11082E+08
</weights>
</event>
<event>
      7  10001  1.11453E+07  6.40271E+00 -1.00000E+00  2.20188E-01
       3    -1     0     0   501     0  0.000000000E+00  0.000000000E+00  1.128512151E+00  1.128512151E+00  0.000000000E+00  0.00000E+00  9.000E+00
      21    -1     0     0   502   501  0.000000000E+00  0.000000000E+00 -1.866341389E+01  1.866341389E+01  0.000000000E+00  0.00000E+00  9.000E+00
      23     2     1     2     0     0  1.181791096E+00  1.801828198E-01 -7.504944885E+00  8.104803553E+00  2.816832773E+00  0.00000E+00  9.000E+00
      11     1     3     3     0     0  7.117190021E-01 -3.549284706E-01 -2.774784181E-01  8.423257629E-01  5.110000000E-04  0.00000E+00  9.000E+00
     -11     1     3     3     0     0  4.700720935E-01  5.351112904E-01 -7.227466467E+00  7.262477790E+00  5.110000000E-04  0.00000E+00  9.000E+00
       3     1     1     2   512     0  1.620627580E+00  7.919401750E-01 -7.656703696E-01  1.959554569E+00  0.000000000E+00  0.00000E+00  9.000E+00
      21     1     1     2   502   512 -2.802418676E+00 -9.721229948E-01 -9.264286486E+00  9.727567921E+00  1.685873940E-07  0.00000E+00  9.000E+00
#rwgt            2         278   158556.13213757062                3    14852940           0
<weights>
0.11145E+08
0.10866E+08
0.11227E+08
0.13206E+08
0.89955E+07
0.91702E+07
0.13910E+08
0.11215E+08
0.11074E+08
0.10920E+08
0.10964E+08
0.10994E+08
0.11098E+08
0.10958E+08
0.10967E+08
0.11204E+08
0.11144E+08
0.11319E+08
0.11327E+08
0.11324E+08
0.11306E+08
0.11323E+08
0.11366E+08
0.11196E+08
0.11331E+08
0.11283E+08
0.11067E+08
0.11291E+08
0.11225E+08
0.11283E+08
0.11335E+08
0.11131E+08
0.11216E+08
0.11149E+08
0.11149E+08
0.11261E+08
0.11042E+08
0.10941E+08
0.11292E+08
0.11118E+08
0.11171E+08
0.11154E+08
0.11137E+08
0.11355E+08
0.10945E+08
</weights>
</event>
<event>
      7  10001  1.11453E+07  1.52226E+01 -1.00000E+00  1.76521E-01
      21    -1     0     0   502   501  0.000000000E+00  0.000000000E+00  1.967863256E-01  1.967863256E-01  0.000000000E+00  0.00000E+00  9.000E+00
       2    -1     0     0   501     0  0.000000000E+00  0.000000000E+00 -4.436030430E+02  4.436030430E+02  0.000000000E+00  0.00000E+00  9.000E+00
      23     2     1     2     0     0  1.005042152E+00 -4.041690428E-01 -4.215271269E+02  4.215297565E+02  1.021480142E+00  0.00000E+00  9.000E+00
      11     1     3     3     0     0 -1.104233922E-02 -2.183301077E-01 -1.828749313E+01  1.828879972E+01  5.110000000E-04  0.00000E+00  9.000E+00
     -11     1     3     3     0     0  1.016084491E+00 -1.858389351E-01 -4.032396338E+02  4.032409568E+02  5.110000000E-04  0.00000E+00  9.000E+00
       2     1     1     2   511     0 -5.387404612E-01 -1.989434243E-01 -2.131241926E+01  2.132015560E+01  0.000000000E+00  0.00000E+00  9.000E+00
      21     1     1     2   502   511 -4.663016908E-01  6.031124671E-01 -5.667104237E-01  9.499171644E-01  2.570817410E-06  0.00000E+00  9.000E+00
#rwgt            2         189   26685412.274615359                3    14853020           0
<weights>
0.11145E+08
0.10370E+08
0.11890E+08
0.12604E+08
0.95268E+07
0.91702E+07
0.13910E+08
0.11129E+08
0.11161E+08
0.11165E+08
0.11152E+08
0.10993E+08
0.11319E+08
0.11158E+08
0.11154E+08
0.11293E+08
0.10922E+08
0.11456E+08
0.10700E+08
0.10638E+08
0.11492E+08
0.11108E+08
0.11170E+08
0.11054E+08
0.11196E+08
0.11327E+08
0.11030E+08
0.10768E+08
0.11554E+08
0.11070E+08
0.11185E+08
0.11024E+08
0.11264E+08
0.11494E+08
0.10715E+08
0.11100E+08
0.11186E+08
0.11149E+08
0.11147E+08
0.11248E+08
0.11053E+08
0.11136E+08
0.11155E+08
0.11131E+08
0.11159E+08
</weights>
</event>
<event>
      7  10001  1.11453E+07  1.02668E+00 -1.00000E+00  5.52495E-01
      -2    -1     0     0     0   502  0.000000000E+00  0.000000000E+00  2.822169339E-01  2.822169339E-01  0.000000000E+00  0.00000E+00  9.000E+00
      21    -1     0     0   502   512  0.000000000E+00  0.000000000E+00 -5.770283537E+01  5.770283537E+01  0.000000000E+00  0.00000E+00  9.000E+00
      23     2     1     2     0     0 -1.514984252E-01 -5.114167025E-01 -1.168202158E+01  1.211482221E+01  3.164615321E+00  0.00000E+00  9.000E+00
      11     1     3     3     0     0  8.050502103E-02 -1.652713188E+00 -3.764532887E+00  4.112134490E+00  5.110000000E-04  0.00000E+00  9.000E+00
     -11     1     3     3     0     0 -2.320034462E-01  1.141296485E+00 -7.917488694E+00  8.002687720E+00  5.110000000E-04  0.00000E+00  9.000E+00
      -2     1     1     2     0   501  7.955407617E-01 -2.881386052E-01 -2.940280489E+00  3.059601005E+00  0.000000000E+00  0.00000E+00  9.000E+00
      21     1     1     2   501   512 -6.440423366E-01  7.995553077E-01 -4.279831636E+01  4.281062909E+01  0.000000000E+00  0.00000E+00  9.000E+00
#rwgt            1           7   359118.02347479633                3    14854297           0
<weights>
0.11145E+08
0.14475E+08
0.79405E+07
0.10731E+08
0.10836E+08
0.13806E+08
0.67934E+07
0.11303E+08
0.10979E+08
0.10388E+08
0.10404E+08
0.10751E+08
0.10811E+08
0.10413E+08
0.10407E+08
0.11297E+08
0.11371E+08
0.11884E+08
0.11974E+08
0.11974E+08
0.11824E+08
0.11948E+08
0.12069E+08
0.11514E+08
0.11759E+08
0.11691E+08
0.10963E+08
0.11870E+08
0.11581E+08
0.11889E+08
0.11982E+08
0.11218E+08
0.11319E+08
0.11136E+08
0.11203E+08
0.11387E+08
0.10941E+08
0.10991E+08
0.10992E+08
0.11241E+08
0.11063E+08
0.11213E+08
0.11075E+08
0.11977E+08
0.10385E+08
</weights>
</event>
<event>
      7  10001  1.11453E+07  2.34492E+00 -1.00000E+00  3.26798E-01
       2    -1     0     0   501     0  0.000000000E+00  0.000000000E+00  1.608955487E+01  1.608955487E+01  0.000000000E+00  0.00000E+00  9.000E+00
      21    -1     0     0   502   511  0.000000000E+00  0.000000000E+00 -3.433312092E+01  3.433312092E+01  0.000000000E+00  0.00000E+00  9.000E+00
      23     2     1     2     0     0  1.749098359E-01  2.323959016E-01  1.578634181E+01  1.587299631E+01  1.630589788E+00  0.00000E+00  9.000E+00
      11     1     3     3     0     0 -4.493176105E-01  2.894695879E-01  1.323472909E+01  1.324551748E+01  5.110000000E-04  0.00000E+00  9.000E+00
     -11     1     3     3     0     0  6.242274464E-01 -5.707368632E-02  2.551612718E+00  2.627478837E+00  5.110000000E-04  0.00000E+00  9.000E+00
       2     1     1     2   502     0  1.268000336E+00  1.616023266E+00 -4.738564976E+00  5.164625260E+00  0.000000000E+00  0.00000E+00  9.000E+00
      21     1     1     2   501   511 -1.442910172E+00 -1.848419167E+00 -2.929134288E+01  2.938505421E+01  4.768371582E-07  0.00000E+00  9.000E+00
#rwgt            1          24   32724719.877389744                3    14903181           0
<weights>
0.11145E+08
0.11799E+08
0.10240E+08
0.12753E+08
0.93781E+07
0.10308E+08
0.12164E+08
0.11216E+08
0.11070E+08
0.10771E+08
0.10772E+08
0.10930E+08
0.10994E+08
0.10795E+08
0.10781E+08
0.11247E+08
0.11209E+08
0.11515E+08
0.11523E+08
0.11520E+08
0.11485E+08
0.11545E+08
0.11576E+08
0.11351E+08
0.11411E+08
0.11354E+08
0.11110E+08
0.11478E+08
0.11382E+08
0.11514E+08
0.11560E+08
0.11186E+08
0.11227E+08
0.11134E+08
0.11181E+08
0.11257E+08
0.11052E+08
0.11083E+08
0.11093E+08
0.11169E+08
0.11126E+08
0.11185E+08
0.11104E+08
0.11555E+08
0.10767E+08
</weights>
</event>
<event>
      6  10001 -1.11453E+07  8.94427E-01 -1.00000E+00  1.84880E-01
      21    -1     0     0   502   501  0.000000000E+00  0.000000000E+00  8.573102327E-03  8.573102327E-03  0.000000000E+00  0.00000E+00  9.000E+00
      -1    -1     0     0     0   502  0.000000000E+00  0.000000000E+00 -1.082829487E+02  1.082829487E+02  0.000000000E+00  0.00000E+00  9.000E+00
      23     2     1     2     0     0  1.999127390E-01 -4.346905504E-01 -7.996635989E+01  7.997946299E+01  1.366332638E+00  0.00000E+00  9.000E+00
      11     1     3     3     0     0 -5.382292875E-01  5.738302553E-02 -3.687470089E+01  3.687867337E+01  5.110000000E-04  0.00000E+00  9.000E+00
     -11     1     3     3     0     0  7.381420265E-01 -4.920735759E-01 -4.309165901E+01  4.310078962E+01  5.110000000E-04  0.00000E+00  9.000E+00
      -1     1     1     2     0   501 -1.999127390E-01  4.346905504E-01 -2.830801572E+01  2.831205882E+01  0.000000000E+00  0.00000E+00  9.000E+00
#rwgt            1          15  -566191.83334385813                3    15023164           0
<weights>
-.11145E+08
-.12156E+08
-.99690E+07
-.14774E+08
-.79877E+07
-.91702E+07
-.13910E+08
-.11159E+08
-.11130E+08
-.11174E+08
-.11209E+08
-.11104E+08
-.11156E+08
-.11213E+08
-.11212E+08
-.11045E+08
-.11207E+08
-.11134E+08
-.10979E+08
-.10950E+08
-.11154E+08
-.11063E+08
-.11053E+08
-.11143E+08
-.11061E+08
-.11113E+08
-.11126E+08
-.11072E+08
-.10985E+08
-.11057E+08
-.11072E+08
-.11149E+08
-.11114E+08
-.11310E+08
-.10982E+08
-.11066E+08
-.11201E+08
-.11102E+08
-.11212E+08
-.11111E+08
-.11160E+08
-.11302E+08
-.10977E+08
-.11073E+08
-.11203E+08
</weights>
</event>
<event>
      6  10001  1.11453E+07  8.94427E-01 -1.00000E+00  5.99259E-01
      21    -1     0     0   502   501  0.000000000E+00  0.000000000E+00  3.489727185E-02  3.489727185E-02  0.000000000E+00  0.00000E+00  9.000E+00
       2    -1     0     0   501     0  0.000000000E+00  0.000000000E+00 -1.135543592E+02  1.135543592E+02  0.000000000E+00  0.00000E+00  9.000E+00
      23     2     1     2     0     0 -2.429306466E-01  2.252642361E-01 -1.125308247E+02  1.125465855E+02  1.854084819E+00  0.00000E+00  9.000E+00
      11     1     3     3     0     0 -4.849384056E-01 -2.263303921E-01 -9.880500771E+00  9.894982892E+00  5.110000000E-04  0.00000E+00  9.000E+00
     -11     1     3     3     0     0  2.420077590E-01  4.515946281E-01 -1.026503240E+02  1.026516026E+02  5.110000000E-04  0.00000E+00  9.000E+00
       2     1     1     2   502     0  2.429306466E-01 -2.252642361E-01 -9.886371676E-01  1.042670957E+00  0.000000000E+00  0.00000E+00  9.000E+00
#rwgt            1          17   4717145.9492055075                3    15025212           0
<weights>
0.11145E+08
0.14649E+08
0.75154E+07
0.13038E+08
0.90490E+07
0.12349E+08
0.90299E+07
0.11179E+08
0.11111E+08
0.11100E+08
0.11144E+08
0.11224E+08
0.10994E+08
0.11133E+08
0.11137E+08
0.11130E+08
0.11132E+08
0.10970E+08
0.11380E+08
0.11411E+08
0.10947E+08
0.11158E+08
0.11137E+08
0.11314E+08
0.10986E+08
0.10990E+08
0.11228E+08
0.11412E+08
0.10768E+08
0.11181E+08
0.11118E+08
0.11164E+08
0.11123E+08
0.10949E+08
0.11389E+08
0.11143E+08
0.11142E+08
0.11090E+08
0.11205E+08
0.11057E+08
0.11215E+08
0.11238E+08
0.11046E+08
0.11160E+08
0.11126E+08
</weights>
</event>
<event>
      6  10001 -1.11453E+07  8.94427E-01 -1.00000E+00  4.28379E-01
      21    -1     0     0   502   501  0.000000000E+00  0.000000000E+00  9.238830154E-02  9.238830154E-02  0.000000000E+00  0.00000E+00  9.000E+00
       4    -1     0     0   501     0  0.000000000E+00  0.000000000E+00 -9.347523587E+00  9.347523587E+00  0.000000000E+00  0.00000E+00  9.000E+00
      23     2     1     2     0     0 -3.921331879E-02 -2.937749011E-01 -8.776904200E+00  8.877287371E+00  1.297822157E+00  0.00000E+00  9.000E+00
      11     1     3     3     0     0  2.920554403E-01  4.389396274E-02 -7.642567741E+00  7.648272027E+00  5.110000000E-04  0.00000E+00  9.000E+00
     -11     1     3     3     0     0 -3.312687591E-01 -3.376688638E-01 -1.134336459E+00  1.229015344E+00  5.110000000E-04  0.00000E+00  9.000E+00
       4     1     1     2   502     0  3.921331879E-02  2.937749011E-01 -4.782310854E-01  5.626245177E-01  0.000000000E+00  0.00000E+00  9.000E+00
#rwgt            1          19  -405890.59578560956                3    15043584           0
<weights>
-.11145E+08
-.61158E+07
-.14820E+08
-.16857E+08
-.68340E+07
-.33444E+07
-.22853E+08
-.11184E+08
-.11110E+08
-.11206E+08
-.11302E+08
-.11126E+08
-.11264E+08
-.11274E+08
-.11301E+08
-.11157E+08
-.10975E+08
-.10973E+08
-.10944E+08
-.10937E+08
-.10989E+08
-.10939E+08
-.10951E+08
-.10991E+08
-.11089E+08
-.11007E+08
-.11156E+08
-.10918E+08
-.11013E+08
-.10895E+08
-.10942E+08
-.11057E+08
-.11174E+08
-.11174E+08
-.11096E+08
-.11200E+08
-.11091E+08
-.10796E+08
-.11589E+08
-.11024E+08
-.11252E+08
-.11122E+08
-.11170E+08
-.10991E+08
-.11268E+08
</weights>
</event>
<event>
      6  10001 -1.11453E+07  8.94427E-01 -1.00000E+00  2.29353E-01
      -2    -1     0     0     0   502  0.000000000E+00  0.000000000E+00  2.498452032E-02  2.498452032E-02  0.000000000E+00  0.00000E+00  9.000E+00
       2    -1     0     0   501     0  0.000000000E+00  0.000000000E+00 -2.966318669E+01  2.966318669E+01  0.000000000E+00  0.00000E+00  9.000E+00
      23     2     1     2     0     0  2.456667951E-01 -2.485459285E-01 -2.702765881E+01  2.705434056E+01  1.149293358E+00  0.00000E+00  9.000E+00
      11     1     3     3     0     0  5.546731657E-01  7.562988371E-02 -7.238519187E+00  7.260133779E+00  5.110000000E-04  0.00000E+00  9.000E+00
     -11     1     3     3     0     0 -3.090063706E-01 -3.241758122E-01 -1.978913963E+01  1.979420679E+01  5.110000000E-04  0.00000E+00  9.000E+00
      21     1     1     2   501   502 -2.456667951E-01  2.485459285E-01 -2.610543353E+00  2.633830642E+00  2.980232239E-08  0.00000E+00  9.000E+00
#rwgt            1           8  -8366026.0733818812                3    15049449           0
<weights>
-.11145E+08
-.12461E+08
-.97373E+07
-.15144E+08
-.78020E+07
-.91702E+07
-.13910E+08
-.11198E+08
-.11092E+08
-.11008E+08
-.11053E+08
-.11117E+08
-.11030E+08
-.11042E+08
-.11052E+08
-.11084E+08
-.11258E+08
-.11133E+08
-.11380E+08
-.11389E+08
-.11122E+08
-.11241E+08
-.11250E+08
-.11241E+08
-.11187E+08
-.11185E+08
-.11122E+08
-.11368E+08
-.10968E+08
-.11230E+08
-.11219E+08
-.11145E+08
-.11174E+08
-.11076E+08
-.11250E+08
-.11111E+08
-.11184E+08
-.10988E+08
-.11283E+08
-.11084E+08
-.11195E+08
-.11212E+08
-.11074E+08
-.11257E+08
-.11036E+08
</weights>
</event>
<event>
      6  10001 -1.11453E+07  8.94427E-01 -1.00000E+00  1.50825E-01
       4    -1     0     0   501     0  0.000000000E+00  0.000000000E+00  5.922920247E+01  5.922920247E+01  0.000000000E+00  0.00000E+00  9.000E+00
      21    -1     0     0   502   501  0.000000000E+00  0.000000000E+00 -1.343218180E-02  1.343218180E-02  0.000000000E+00  0.00000E+00  9.000E+00
      23     2     1     2     0     0  1.712304802E-01  2.069319735E-01  5.627985243E+01  5.629445651E+01  1.253755502E+00  0.00000E+00  9.000E+00
      11     1     3     3     0     0  3.950934722E-01  4.539218618E-01  5.126750519E+01  5.127103698E+01  5.110000000E-04  0.00000E+00  9.000E+00
     -11     1     3     3     0     0 -2.238629920E-01 -2.469898882E-01  5.012347238E+00  5.023419527E+00  5.110000000E-04  0.00000E+00  9.000E+00
       4     1     1     2   502     0 -1.712304802E-01 -2.069319735E-01  2.935917860E+00  2.948178150E+00  0.000000000E+00  0.00000E+00  9.000E+00
#rwgt            1          28  -1212132.9037976486                3    15050670           0
<weights>
-.11145E+08
-.12865E+08
-.92400E+07
-.15644E+08
-.74038E+07
-.91656E+07
-.13909E+08
-.11171E+08
-.11121E+08
-.10823E+08
-.10812E+08
-.10962E+08
-.11006E+08
-.10840E+08
-.10823E+08
-.11226E+08
-.11212E+08
-.11463E+08
-.11505E+08
-.11493E+08
-.11439E+08
-.11502E+08
-.11521E+08
-.11414E+08
-.11328E+08
-.11286E+08
-.11359E+08
-.11435E+08
-.11373E+08
-.11480E+08
-.11515E+08
-.11184E+08
-.11217E+08
-.11138E+08
-.11178E+08
-.11208E+08
-.11102E+08
-.11133E+08
-.11083E+08
-.11167E+08
-.11127E+08
-.11185E+08
-.11103E+08
-.11506E+08
-.10813E+08
</weights>
</event>
<event>
      7  10001  1.11453E+07  1.07207E+00 -1.00000E+00  5.36367E-01
      21    -1     0     0   502   501  0.000000000E+00  0.000000000E+00  3.763099296E-01  3.763099296E-01  0.000000000E+00  0.00000E+00  9.000E+00
       5    -1     0     0   501     0  0.000000000E+00  0.000000000E+00 -3.683012451E+00  3.683012451E+00  0.000000000E+00  0.00000E+00  9.000E+00
      23     2     1     2     0     0 -3.864297045E-01  3.194918872E-01 -2.219995454E+00  2.505524797E+00  1.047793734E+00  0.00000E+00  9.000E+00
      11     1     3     3     0     0 -5.283593517E-01 -1.240344829E-01 -5.534869172E-01  7.751749390E-01  5.110000000E-04  0.00000E+00  9.000E+00
     -11     1     3     3     0     0  1.419296472E-01  4.435263701E-01 -1.666508537E+00  1.730349858E+00  5.110000000E-04  0.00000E+00  9.000E+00
       5     1     1     2   511     0  1.324628711E-01 -4.534189834E-01 -1.164221235E+00  1.256402113E+00  0.000000000E+00  0.00000E+00  9.000E+00
      21     1     1     2   502   511  2.539668335E-01  1.339270962E-01  7.751416758E-02  2.973954703E-01  1.997464391E-08  0.00000E+00  9.000E+00
#rwgt            2         198   2647287.6632934059                3    15052625           0
<weights>
0.11145E+08
0.12712E+08
0.91697E+07
0.15450E+08
0.73472E+07
0.91702E+07
0.13910E+08
0.11211E+08
0.11076E+08
0.10858E+08
0.10875E+08
0.10966E+08
0.11052E+08
0.10886E+08
0.10882E+08
0.11220E+08
0.11182E+08
0.11410E+08
0.11416E+08
0.11413E+08
0.11389E+08
0.11427E+08
0.11460E+08
0.11273E+08
0.11360E+08
0.11319E+08
0.11084E+08
0.11384E+08
0.11296E+08
0.11395E+08
0.11440E+08
0.11160E+08
0.11217E+08
0.11140E+08
0.11167E+08
0.11256E+08
0.11050E+08
0.11030E+08
0.11179E+08
0.11144E+08
0.11148E+08
0.11166E+08
0.11124E+08
0.11446E+08
0.10865E+08
</weights>
</event>
<event>
      7  10001  1.11453E+07  8.94427E-01 -1.00000E+00  6.07649E-01
      -4    -1     0     0     0   501  0.000000000E+00  0.000000000E+00  8.863451762E+00  8.863451762E+00  0.000000000E+00  0.00000E+00  9.000E+00
       2    -1     0     0   501     0  0.000000000E+00  0.000000000E+00 -3.931014650E+00  3.931014650E+00  0.000000000E+00  0.00000E+00  9.000E+00
      23     2     1     2     0     0 -1.088708589E-02 -1.097091311E+00  8.125139560E+00  8.506884964E+00  2.268363080E+00  0.00000E+00  9.000E+00
      11     1     3     3     0     0  4.619779644E-01 -1.686292030E+00  6.091144618E+00  6.337116653E+00  5.110000000E-04  0.00000E+00  9.000E+00
     -11     1     3     3     0     0 -4.728650503E-01  5.892007193E-01  2.033994942E+00  2.169768312E+00  5.110000000E-04  0.00000E+00  9.000E+00
       2     1     1     2   502     0 -5.495875407E-01  8.985988239E-01 -3.473735334E+00  3.629926099E+00  0.000000000E+00  0.00000E+00  9.000E+00
      -4     1     1     2     0   502  5.604746266E-01  1.984924872E-01  2.810328859E-01  6.576553485E-01  0.000000000E+00  0.00000E+00  9.000E+00
#rwgt            2          46   19513.265457005647                3    15057949           0
<weights>
0.11145E+08
0.11335E+08
0.10706E+08
0.13777E+08
0.85782E+07
0.91702E+07
0.13910E+08
0.11130E+08
0.11158E+08
0.10874E+08
0.10872E+08
0.11009E+08
0.10999E+08
0.10892E+08
0.10881E+08
0.11150E+08
0.11286E+08
0.11387E+08
0.11453E+08
0.11449E+08
0.11369E+08
0.11437E+08
0.11449E+08
0.11317E+08
0.11321E+08
0.11333E+08
0.11074E+08
0.11450E+08
0.11215E+08
0.11419E+08
0.11431E+08
0.11156E+08
0.11223E+08
0.11124E+08
0.11197E+08
0.11094E+08
0.11216E+08
0.11076E+08
0.11131E+08
0.11141E+08
0.11147E+08
0.11205E+08
0.11082E+08
0.11441E+08
0.10872E+08
</weights>
</event>
<event>
      7  10001  1.11453E+07  1.53299E+00 -1.00000E+00  4.11652E-01
      -3    -1     0     0     0   502  0.000000000E+00  0.000000000E+00  1.459847873E+01  1.459847873E+01  0.000000000E+00  0.00000E+00  9.000E+00
      21    -1     0     0   501   511  0.000000000E+00  0.000000000E+00 -1.445022976E+00  1.445022976E+00  0.000000000E+00  0.00000E+00  9.000E+00
      23     2     1     2     0     0  4.595797975E-01 -4.216242955E+00  6.524921488E+00  7.939716589E+00  1.573715616E+00  0.00000E+00  9.000E+00
      11     1     3     3     0     0 -1.594583703E-01 -2.278519765E+00  4.615539182E+00  5.149784607E+00  5.110000000E-04  0.00000E+00  9.000E+00
     -11     1     3     3     0     0  6.190381678E-01 -1.937723191E+00  1.909382306E+00  2.789931983E+00  5.110000000E-04  0.00000E+00  9.000E+00
      21     1     1     2   501   502 -1.246283287E-01  2.720289638E+00  5.685384880E+00  6.303896348E+00  2.384185791E-07  0.00000E+00  9.000E+00
      -3     1     1     2     0   511 -3.349514688E-01  1.495953317E+00  9.431493836E-01  1.799888767E+00  0.000000000E+00  0.00000E+00  9.000E+00
#rwgt            1           6   17855.208733635714                3    15058238           0
<weights>
0.11145E+08
0.11806E+08
0.10481E+08
0.11826E+08
0.99629E+07
0.10835E+08
0.11354E+08
0.11189E+08
0.11097E+08
0.10798E+08
0.10797E+08
0.11016E+08
0.10921E+08
0.10815E+08
0.10802E+08
0.11244E+08
0.11132E+08
0.11270E+08
0.11987E+08
0.11885E+08
0.11269E+08
0.11511E+08
0.11584E+08
0.12244E+08
0.10926E+08
0.10618E+08
0.14208E+08
0.11241E+08
0.11734E+08
0.11490E+08
0.11569E+08
0.11229E+08
0.11182E+08
0.11146E+08
0.11174E+08
0.11235E+08
0.11073E+08
0.11177E+08
0.11030E+08
0.11185E+08
0.11110E+08
0.11205E+08
0.11083E+08
0.11533E+08
0.10790E+08
</weights>
</event>
<event>
      6  10001 -1.11453E+07  8.94427E-01 -1.00000E+00  5.51625E-01
      21    -1     0     0   502   501  0.000000000E+00  0.000000000E+00  6.725663473E-03  6.725663473E-03  0.000000000E+00  0.00000E+00  9.000E+00
       2    -1     0     0   501     0  0.000000000E+00  0.000000000E+00 -1.307815334E+02  1.307815334E+02  0.000000000E+00  0.00000E+00  9.000E+00
      23     2     1     2     0     0 -3.319310606E-01  4.901611845E-01 -9.225532541E+01  9.226422819E+01  1.136793889E+00  0.00000E+00  9.000E+00
      11     1     3     3     0     0  3.989233070E-01  7.302003315E-02 -4.087609898E+01  4.087811076E+01  5.110000000E-04  0.00000E+00  9.000E+00
     -11     1     3     3     0     0 -7.308543676E-01  4.171411514E-01 -5.137922643E+01  5.138611742E+01  5.110000000E-04  0.00000E+00  9.000E+00
       2     1     1     2   502     0  3.319310606E-01 -4.901611845E-01 -3.851948233E+01  3.852403088E+01  0.000000000E+00  0.00000E+00  9.000E+00
#rwgt            1          17  -7644888.5453695841                3    15061160           0
<weights>
-.11145E+08
-.12398E+08
-.97491E+07
-.15068E+08
-.78115E+07
-.91702E+07
-.13910E+08
-.11141E+08
-.11149E+08
-.11165E+08
-.11172E+08
-.11144E+08
-.11148E+08
-.11173E+08
-.11172E+08
-.11231E+08
-.10986E+08
-.11130E+08
-.11084E+08
-.11082E+08
-.11130E+08
-.11108E+08
-.11118E+08
-.11218E+08
-.11022E+08
-.11077E+08
-.11173E+08
-.11147E+08
-.11052E+08
-.11117E+08
-.11115E+08
-.11104E+08
-.11175E+08
-.11134E+08
-.11151E+08
-.11139E+08
-.11146E+08
-.11151E+08
-.11144E+08
-.11121E+08
-.11162E+08
-.11183E+08
-.11104E+08
-.11116E+08
-.11171E+08
</weights>
</event>
<event>
      7  10001  1.11453E+07  4.63161E+00 -1.00000E+00  2.46891E-01
      21    -1     0     0   502   501  0.000000000E+00  0.000000000E+00  6.923723952E-01  6.923723952E-01  0.000000000E+00  0.00000E+00  9.000E+00
       2    -1     0     0   501     0  0.000000000E+00  0.000000000E+00 -1.808811521E+01  1.808811521E+01  0.000000000E+00  0.00000E+00  9.000E+00
      23     2     1     2     0     0  1.853885492E-01  1.381994442E-01 -1.687301335E+01  1.706321253E+01  2.530054238E+00  0.00000E+00  9.000E+00
      11     1     3     3     0     0  2.815475403E-01 -1.019227748E+00 -1.228716056E+01  1.233257512E+01  5.110000000E-04  0.00000E+00  9.000E+00
     -11     1     3     3     0     0 -9.615899109E-02  1.157427192E+00 -4.585852790E+00  4.730637412E+00  5.110000000E-04  0.00000E+00  9.000E+00
       2     1     1     2   511     0 -2.210597091E-01 -2.682472525E-01 -1.084865011E+00  1.139190974E+00  0.000000000E+00  0.00000E+00  9.000E+00
      21     1     1     2   502   511  3.567115992E-02  1.300478083E-01  5.621355408E-01  5.780841032E-01  2.787751993E-08  0.00000E+00  9.000E+00
#rwgt            1          17   956997.80233653612                3    15062164           0
<weights>
0.11145E+08
0.14447E+08
0.77164E+07
0.12711E+08
0.93122E+07
0.12433E+08
0.89016E+07
0.11177E+08
0.11108E+08
0.10844E+08
0.10862E+08
0.11097E+08
0.10856E+08
0.10859E+08
0.10863E+08
0.10988E+08
0.11527E+08
0.11265E+08
0.11694E+08
0.11705E+08
0.11240E+08
0.11460E+08
0.11481E+08
0.11363E+08
0.11336E+08
0.11351E+08
0.11063E+08
0.11652E+08
0.10969E+08
0.11457E+08
0.11418E+08
0.11179E+08
0.11205E+08
0.11044E+08
0.11321E+08
0.10944E+08
0.11362E+08
0.11025E+08
0.11146E+08
0.11112E+08
0.11166E+08
0.11282E+08
0.10999E+08
0.11460E+08
0.10856E+08
</weights>
</event>
<event>
      6  10001 -1.11453E+07  8.94427E-01 -1.00000E+00  5.87424E-01
      -4    -1     0     0     0   502  0.000000000E+00  0.000000000E+00  6.849315178E+00  6.849315178E+00  0.000000000E+00  0.00000E+00  9.000E+00
      21    -1     0     0   502   501  0.000000000E+00  0.000000000E+00 -1.138778974E-01  1.138778974E-01  0.000000000E+00  0.00000E+00  9.000E+00
      23     2     1     2     0     0  4.153017680E-01 -2.598307511E-01  3.977444076E+00  4.162030086E+00  1.123585992E+00  0.00000E+00  9.000E+00
      11     1     3     3     0     0  5.766287419E-01 -2.630136923E-01  3.947328813E+00  3.997884681E+00  5.110000000E-04  0.00000E+00  9.000E+00
     -11     1     3     3     0     0 -1.613269739E-01  3.182941185E-03  3.011526330E-02  1.641454046E-01  5.110000000E-04  0.00000E+00  9.000E+00
      -4     1     1     2     0   501 -4.153017680E-01  2.598307511E-01  2.757993205E+00  2.801162990E+00  0.000000000E+00  0.00000E+00  9.000E+00
#rwgt            1           3  -469296.91196772194                3    15077317           0
<weights>
-.11145E+08
-.13180E+08
-.78922E+07
-.20855E+08
-.37909E+07
-.62043E+07
-.18463E+08
-.11244E+08
-.11043E+08
-.11013E+08
-.11096E+08
-.11045E+08
-.11154E+08
-.11064E+08
-.11092E+08
-.11189E+08
-.11078E+08
-.11191E+08
-.11179E+08
-.11184E+08
-.11186E+08
-.11171E+08
-.11229E+08
-.11036E+08
-.11295E+08
-.11204E+08
-.10894E+08
-.11149E+08
-.11132E+08
-.11121E+08
-.11183E+08
-.11097E+08
-.11205E+08
-.11167E+08
-.11118E+08
-.11267E+08
-.11030E+08
-.10814E+08
-.11438E+08
-.11085E+08
-.11199E+08
-.11139E+08
-.11152E+08
-.11222E+08
-.11062E+08
</weights>
</event>
<event>
      7  10001  1.11453E+07  1.46957E+00 -1.00000E+00  4.33346E-01
      21    -1     0     0   511   501  0.000000000E+00  0.000000000E+00  4.706169007E+02  4.706169007E+02  0.000000000E+00  0.00000E+00  9.000E+00
       1    -1     0     0   501     0  0.000000000E+00  0.000000000E+00 -1.659681347E+00  1.659681347E+00  0.000000000E+00  0.00000E+00  9.000E+00
      23     2     1     2     0     0 -6.031355652E-03 -2.127996106E-01  6.950993917E-02  1.450260525E+00  1.432865628E+00  0.00000E+00  9.000E+00
      11     1     3     3     0     0 -2.634866087E-01 -3.039743836E-01  6.751357105E-01  7.858970083E-01  5.110000000E-04  0.00000E+00  9.000E+00
     -11     1     3     3     0     0  2.574552530E-01  9.117477301E-02 -6.056257714E-01  6.643635169E-01  5.110000000E-04  0.00000E+00  9.000E+00
       1     1     1     2   502     0 -1.463026052E+00  1.741459658E-01 -4.076124202E-01  1.528698771E+00  0.000000000E+00  0.00000E+00  9.000E+00
      21     1     1     2   511   502  1.469057408E+00  3.865364486E-02  4.692953218E+02  4.692976227E+02  0.000000000E+00  0.00000E+00  9.000E+00
#rwgt            1          16   42645.174959002106                3    15093629           0
<weights>
0.11145E+08
0.15549E+08
0.83634E+07
0.43858E+07
0.14999E+08
0.18406E+08
-.26778E+06
0.10646E+08
0.11679E+08
0.10762E+08
0.10615E+08
0.10904E+08
0.10907E+08
0.10728E+08
0.10651E+08
0.11314E+08
0.11243E+08
0.11883E+08
0.11352E+08
0.11282E+08
0.11889E+08
0.11704E+08
0.11691E+08
0.11594E+08
0.11331E+08
0.11629E+08
0.11032E+08
0.11558E+08
0.11550E+08
0.11715E+08
0.11716E+08
0.11184E+08
0.11281E+08
0.11378E+08
0.10948E+08
0.10644E+08
0.11708E+08
0.11427E+08
0.10776E+08
0.11188E+08
0.11100E+08
0.11314E+08
0.10967E+08
0.11663E+08
0.10681E+08
</weights>
</event>
<event>
      6  10001 -1.11453E+07  8.94427E-01 -1.00000E+00  4.27714E-01
      -4    -1     0     0     0   502  0.000000000E+00  0.000000000E+00  9.083207454E-01  9.083207454E-01  0.000000000E+00  0.00000E+00  9.000E+00
      21    -1     0     0   502   501  0.000000000E+00  0.000000000E+00 -7.126061402E+00  7.126061402E+00  0.000000000E+00  0.00000E+00  9.000E+00
      23     2     1     2     0     0 -2.759766091E-01  1.181717932E-01 -5.432754514E+00  7.193947197E+00  4.706158413E+00  0.00000E+00  9.000E+00
      11     1     3     3     0     0  1.116207783E+00  1.161958333E+00 -5.193331968E+00  5.437532913E+00  5.110000000E-04  0.00000E+00  9.000E+00
     -11     1     3     3     0     0 -1.392184392E+00 -1.043786539E+00 -2.394225456E-01  1.756414284E+00  5.110000000E-04  0.00000E+00  9.000E+00
      -4     1     1     2     0   501  2.759766091E-01 -1.181717932E-01 -7.849861431E-01  8.404349507E-01  0.000000000E+00  0.00000E+00  9.000E+00
#rwgt            1           3  -557249.11921358237                3    15098393           0
<weights>
-.11145E+08
-.81437E+07
-.13512E+08
-.15149E+08
-.76323E+07
-.57211E+07
-.19204E+08
-.11181E+08
-.11112E+08
-.11211E+08
-.11299E+08
-.11135E+08
-.11256E+08
-.11270E+08
-.11297E+08
-.11153E+08
-.10991E+08
-.10981E+08
-.10954E+08
-.10949E+08
-.10995E+08
-.10946E+08
-.10963E+08
-.10982E+08
-.11105E+08
-.11033E+08
-.11121E+08
-.10932E+08
-.11014E+08
-.10906E+08
-.10948E+08
-.11066E+08
-.11166E+08
-.11170E+08
-.11101E+08
-.11197E+08
-.11093E+08
-.10822E+08
-.11534E+08
-.11036E+08
-.11241E+08
-.11122E+08
-.11170E+08
-.10994E+08
-.11268E+08
</weights>
</event>
<event>
      7  10001  1.11453E+07  2.71338E+00 -1.00000E+00  3.05392E-01
      21    -1     0     0   502   501  0.000000000E+00  0.000000000E+00  5.057299426E+00  5.057299426E+00  0.000000000E+00  0.00000E+00  9.000E+00
       2    -1     0     0   501     0  0.000000000E+00  0.000000000E+00 -1.030807547E+00  1.030807547E+00  0.000000000E+00  0.00000E+00  9.000E+00
      23     2     1     2     0     0  9.599701410E-02 -4.678602420E-01  3.824601209E+00  4.225938734E+00  1.732880591E+00  0.00000E+00  9.000E+00
      11     1     3     3     0     0  8.068784739E-01 -2.009485128E-01  2.963074458E+00  3.077538575E+00  5.110000000E-04  0.00000E+00  9.000E+00
     -11     1     3     3     0     0 -7.108814598E-01 -2.669117292E-01  8.615267510E-01  1.148400159E+00  5.110000000E-04  0.00000E+00  9.000E+00
       2     1     1     2   511     0  1.793427794E-02 -6.580026871E-01  3.057665857E-01  7.257977538E-01  0.000000000E+00  0.00000E+00  9.000E+00
      21     1     1     2   502   511 -1.139312920E-01  1.125862929E+00 -1.038759149E-01  1.136370485E+00  6.122693387E-08  0.00000E+00  9.000E+00
#rwgt            1          17   125801.28366354429                3    15136668           0
<weights>
0.11145E+08
0.12620E+08
0.96249E+07
0.12748E+08
0.93052E+07
0.10875E+08
0.11293E+08
0.11064E+08
0.11237E+08
0.10829E+08
0.10803E+08
0.10978E+08
0.10979E+08
0.10841E+08
0.10816E+08
0.11187E+08
0.11276E+08
0.11478E+08
0.11487E+08
0.11476E+08
0.11455E+08
0.11515E+08
0.11517E+08
0.11401E+08
0.11320E+08
0.11339E+08
0.11150E+08
0.11481E+08
0.11320E+08
0.11500E+08
0.11514E+08
0.11169E+08
0.11235E+08
0.11134E+08
0.11187E+08
0.11088E+08
0.11230E+08
0.11154E+08
0.11061E+08
0.11166E+08
0.11126E+08
0.11207E+08
0.11080E+08
0.11509E+08
0.10812E+08
</weights>
</event>
<event>
      7  10001  1.11453E+07  5.22458E+00 -1.00000E+00  2.33748E-01
      21    -1     0     0   502   501  0.000000000E+00  0.000000000E+00  1.415793859E+02  1.415793859E+02  0.000000000E+00  0.00000E+00  9.000E+00
      -2    -1     0     0     0   502  0.000000000E+00  0.000000000E+00 -7.839726783E-02  7.839726783E-02  0.000000000E+00  0.00000E+00  9.000E+00
      23     2     1     2     0     0  5.245946216E-01  4.441833749E-01  3.662618455E+01  3.664906170E+01  1.097191984E+00  0.00000E+00  9.000E+00
      11     1     3     3     0     0  2.642631407E-01  4.834640130E-02  1.826414741E+00  1.846067021E+00  5.110000000E-04  0.00000E+00  9.000E+00
     -11     1     3     3     0     0  2.603314809E-01  3.958369736E-01  3.479976981E+01  3.480299468E+01  5.110000000E-04  0.00000E+00  9.000E+00
      -2     1     1     2     0   512  1.587870494E+00 -1.885893523E+00  3.477611988E+01  3.486339687E+01  0.000000000E+00  0.00000E+00  9.000E+00
      21     1     1     2   512   501 -2.112465116E+00  1.441710148E+00  7.009868422E+01  7.014532463E+01  1.348699152E-06  0.00000E+00  9.000E+00
#rwgt            2         160   176096.17764695600                3    15150003           0
<weights>
0.11145E+08
0.10690E+08
0.11491E+08
0.12993E+08
0.92071E+07
0.91702E+07
0.13910E+08
0.11056E+08
0.11271E+08
0.10816E+08
0.10789E+08
0.10966E+08
0.10982E+08
0.10828E+08
0.10802E+08
0.11208E+08
0.11252E+08
0.11490E+08
0.11513E+08
0.11498E+08
0.11467E+08
0.11530E+08
0.11536E+08
0.11451E+08
0.11307E+08
0.11314E+08
0.11302E+08
0.11471E+08
0.11367E+08
0.11513E+08
0.11534E+08
0.11176E+08
0.11232E+08
0.11137E+08
0.11183E+08
0.11124E+08
0.11197E+08
0.11166E+08
0.11053E+08
0.11172E+08
0.11122E+08
0.11200E+08
0.11088E+08
0.11525E+08
0.10798E+08
</weights>
</event>
<event>
      6  10001 -1.11453E+07  8.94427E-01 -1.00000E+00  3.77333E-01
      -3    -1     0     0     0   502  0.000000000E+00  0.000000000E+00  2.405578540E+02  2.405578540E+02  0.000000000E+00  0.00000E+00  9.000E+00
       3    -1     0     0   501     0  0.000000000E+00  0.000000000E+00 -9.780253909E-03  9.780253909E-03  0.000000000E+00  0.00000E+00  9.000E+00
      23     2     1     2     0     0  2.576915690E-01 -5.590037907E-01  2.290438029E+02  2.290469078E+02  1.021488372E+00  0.00000E+00  9.000E+00
      11     1     3     3     0     0 -3.245072673E-01 -4.974232834E-01  9.830111927E+01  9.830291341E+01  5.110000000E-04  0.00000E+00  9.000E+00
     -11     1     3     3     0     0  5.821988363E-01 -6.158050731E-02  1.307426836E+02  1.307439944E+02  5.110000000E-04  0.00000E+00  9.000E+00
      21     1     1     2   501   502 -2.576915690E-01  5.590037907E-01  1.150427083E+01  1.152072643E+01  5.331201500E-07  0.00000E+00  9.000E+00
#rwgt            1           6  -7290.9590640435954                3    15150558           0
<weights>
-.11145E+08
-.12901E+08
-.91341E+07
-.15685E+08
-.73189E+07
-.91669E+07
-.13909E+08
-.11175E+08
-.11116E+08
-.10819E+08
-.10808E+08
-.10962E+08
-.11002E+08
-.10837E+08
-.10819E+08
-.11225E+08
-.11214E+08
-.11458E+08
-.11535E+08
-.11516E+08
-.11436E+08
-.11507E+08
-.11528E+08
-.11467E+08
-.11317E+08
-.11270E+08
-.11582E+08
-.11433E+08
-.11388E+08
-.11485E+08
-.11521E+08
-.11187E+08
-.11216E+08
-.11137E+08
-.11178E+08
-.11211E+08
-.11099E+08
-.11139E+08
-.11077E+08
-.11168E+08
-.11126E+08
-.11186E+08
-.11103E+08
-.11511E+08
-.10809E+08
</weights>
</event>
<event>
      6  10001  1.11453E+07  8.94427E-01 -1.00000E+00  6.05649E-01
       2    -1     0     0   501     0  0.000000000E+00  0.000000000E+00  1.227971454E+00  1.227971454E+00  0.000000000E+00  0.00000E+00  9.000E+00
      -2    -1     0     0     0   502  0.000000000E+00  0.000000000E+00 -1.814796008E+00  1.814796008E+00  0.000000000E+00  0.00000E+00  9.000E+00
      23     2     1     2     0     0 -9.931742817E-01 -4.125822669E-01  4.527400078E-01  1.547002186E+00  1.015688421E+00  0.00000E+00  9.000E+00
      11     1     3     3     0     0  1.472584043E-01 -1.469584867E-01  3.015080727E-01  3.663184591E-01  5.110000000E-04  0.00000E+00  9.000E+00
     -11     1     3     3     0     0 -1.140432686E+00 -2.656237802E-01  1.512319351E-01  1.180683727E+00  5.110000000E-04  0.00000E+00  9.000E+00
      21     1     1     2   501   502  9.931742817E-01  4.125822669E-01 -1.039564562E+00  1.495765275E+00  3.332000937E-08  0.00000E+00  9.000E+00
#rwgt            1          23   253799.15065923965                3    15151056           0
<weights>
0.11145E+08
0.11984E+08
0.10303E+08
0.11782E+08
0.98865E+07
0.10956E+08
0.11169E+08
0.11042E+08
0.11255E+08
0.10831E+08
0.10802E+08
0.10978E+08
0.10975E+08
0.10842E+08
0.10815E+08
0.11174E+08
0.11294E+08
0.11493E+08
0.11462E+08
0.11448E+08
0.11474E+08
0.11514E+08
0.11516E+08
0.11403E+08
0.11310E+08
0.11379E+08
0.11087E+08
0.11485E+08
0.11304E+08
0.11500E+08
0.11511E+08
0.11152E+08
0.11251E+08
0.11149E+08
0.11170E+08
0.11030E+08
0.11289E+08
0.11149E+08
0.11060E+08
0.11167E+08
0.11124E+08
0.11218E+08
0.11068E+08
0.11507E+08
0.10814E+08
</weights>
</event>
<event>
      7  10001  1.11453E+07  1.00728E+00 -1.00000E+00  5.59780E-01
      21    -1     0     0   502   501  0.000000000E+00  0.000000000E+00  2.324827362E+01  2.324827362E+01  0.000000000E+00  0.00000E+00  9.000E+00
      -2    -1     0     0     0   502  0.000000000E+00  0.000000000E+00 -4.262232832E+00  4.262232832E+00  0.000000000E+00  0.00000E+00  9.000E+00
      23     2     1     2     0     0  2.514845410E-01  1.675026367E-01 -3.274356430E+00  5.228601961E+00  4.065165043E+00  0.00000E+00  9.000E+00
      11     1     3     3     0     0 -4.851927135E-01 -1.438306126E+00 -1.132166091E-02  1.517980541E+00  5.110000000E-04  0.00000E+00  9.000E+00
     -11     1     3     3     0     0  7.366772545E-01  1.605808762E+00 -3.263034769E+00  3.710621420E+00  5.110000000E-04  0.00000E+00  9.000E+00
      -2     1     1     2     0   511 -4.945405174E-01  1.908807121E-01  1.024270305E+01  1.025641124E+01  0.000000000E+00  0.00000E+00  9.000E+00
      21     1     1     2   511   501  2.430559763E-01 -3.583833488E-01  1.201769416E+01  1.202549325E+01  5.840038640E-07  0.00000E+00  9.000E+00
#rwgt            1          14   27845246.184611015                3    15152656           0
<weights>
0.11145E+08
0.11818E+08
0.10363E+08
0.12476E+08
0.97058E+07
0.10525E+08
0.11830E+08
0.11071E+08
0.11216E+08
0.10828E+08
0.10805E+08
0.10981E+08
0.10962E+08
0.10840E+08
0.10817E+08
0.11148E+08
0.11330E+08
0.11497E+08
0.11455E+08
0.11437E+08
0.11481E+08
0.11508E+08
0.11521E+08
0.11391E+08
0.11322E+08
0.11426E+08
0.11028E+08
0.11494E+08
0.11265E+08
0.11491E+08
0.11503E+08
0.11132E+08
0.11269E+08
0.11168E+08
0.11151E+08
0.10976E+08
0.11341E+08
0.11111E+08
0.11079E+08
0.11166E+08
0.11123E+08
0.11236E+08
0.11050E+08
0.11505E+08
0.10815E+08
</weights>
</event>
<event>
      6  10001 -1.11453E+07  8.94427E-01 -1.00000E+00  3.38211E-01
       1    -1     0     0   501     0  0.000000000E+00  0.000000000E+00  1.865581022E+02  1.865581022E+02  0.000000000E+00  0.00000E+00  9.000E+00
      21    -1     0     0   502   501  0.000000000E+00  0.000000000E+00 -2.365164987E-02  2.365164987E-02  0.000000000E+00  0.00000E+00  9.000E+00
      23     2     1     2     0     0 -1.490641307E+00  2.113080485E-01  1.309052245E+02  1.309321586E+02  2.187621270E+00  0.00000E+00  9.000E+00
      11     1     3     3     0     0  9.054689971E-02 -7.415947487E-01  2.615847467E+01  2.616914135E+01  5.110000000E-04  0.00000E+00  9.000E+00
     -11     1     3     3     0     0 -1.581188206E+00  9.529027972E-01  1.047467498E+02  1.047630172E+02  5.110000000E-04  0.00000E+00  9.000E+00
       1     1     1     2   502     0  1.490641307E+00 -2.113080485E-01  5.562922602E+01  5.564959524E+01  0.000000000E+00  0.00000E+00  9.000E+00
#rwgt            1          22  -4853462.5192806432                3    15226887           0
<weights>
-.11143E+08
-.12459E+08
-.96051E+07
-.15159E+08
-.76967E+07
-.91586E+07
-.13906E+08
-.11166E+08
-.11123E+08
-.10816E+08
-.10803E+08
-.10958E+08
-.10999E+08
-.10832E+08
-.10814E+08
-.11224E+08
-.11214E+08
-.11468E+08
-.11514E+08
-.11501E+08
-.11444E+08
-.11510E+08
-.11528E+08
-.11426E+08
-.11326E+08
-.11286E+08
-.11380E+08
-.11442E+08
-.11378E+08
-.11489E+08
-.11522E+08
-.11184E+08
-.11215E+08
-.11135E+08
-.11177E+08
-.11203E+08
-.11104E+08
-.11141E+08
-.11071E+08
-.11167E+08
-.11123E+08
-.11185E+08
-.11100E+08
-.11512E+08
-.10804E+08
</weights>
</event>
<event>
      7  10001  1.11453E+07  1.99910E+00 -1.00000E+00  3.54061E-01
      21    -1     0     0   511   501  0.000000000E+00  0.000000000E+00  3.767256846E+02  3.767256846E+02  0.000000000E+00  0.00000E+00  9.000E+00
       2    -1     0     0   501     0  0.000000000E+00  0.000000000E+00 -1.512417590E-01  1.512417590E-01  0.000000000E+00  0.00000E+00  9.000E+00
      23     2     1     2     0     0 -6.871333665E-01 -1.187174878E-01  5.006332101E+00  5.236186209E+00  1.366762161E+00  0.00000E+00  9.000E+00
      11     1     3     3     0     0  2.694797260E-01  3.712788277E-01  1.575898360E+00  1.641317518E+00  5.110000000E-04  0.00000E+00  9.000E+00
     -11     1     3     3     0     0 -9.566130925E-01 -4.899963156E-01  3.430433741E+00  3.594868692E+00  5.110000000E-04  0.00000E+00  9.000E+00
       2     1     1     2   502     0 -1.045064069E+00  1.116654078E+00  1.742564982E+01  1.749263693E+01  0.000000000E+00  0.00000E+00  9.000E+00
      21     1     1     2   511   502  1.732197435E+00 -9.979365899E-01  3.541424610E+02  3.541481033E+02  3.814697266E-06  0.00000E+00  9.000E+00
#rwgt            1          17   1056834.0967339769                3    15227155           0
<weights>
0.11145E+08
0.13184E+08
0.91607E+07
0.12388E+08
0.95773E+07
0.11562E+08
0.10238E+08
0.10836E+08
0.11549E+08
0.10795E+08
0.10734E+08
0.10975E+08
0.10926E+08
0.10796E+08
0.10751E+08
0.11170E+08
0.11342E+08
0.11545E+08
0.11556E+08
0.11532E+08
0.11524E+08
0.11595E+08
0.11576E+08
0.11557E+08
0.11266E+08
0.11360E+08
0.11314E+08
0.11553E+08
0.11366E+08
0.11592E+08
0.11584E+08
0.11168E+08
0.11260E+08
0.11132E+08
0.11199E+08
0.10956E+08
0.11385E+08
0.11244E+08
0.10980E+08
0.11184E+08
0.11109E+08
0.11232E+08
0.11054E+08
0.11571E+08
0.10759E+08
</weights>
</event>
<event>
      7  10001  1.11453E+07  8.94427E-01 -1.00000E+00  6.07649E-01
      -4    -1     0     0     0   502  0.000000000E+00  0.000000000E+00  1.508051468E+00  1.508051468E+00  0.000000000E+00  0.00000E+00  9.000E+00
      21    -1     0     0   501   511  0.000000000E+00  0.000000000E+00 -2.264159529E+00  2.264159529E+00  0.000000000E+00  0.00000E+00  9.000E+00
      23     2     1     2     0     0 -4.635480305E-01  7.401386214E-02  9.617271204E-01  1.648064568E+00  1.253332732E+00  0.00000E+00  9.000E+00
      11     1     3     3     0     0 -4.969760233E-01  5.336155601E-01  9.360164722E-01  1.186531850E+00  5.110000000E-04  0.00000E+00  9.000E+00
     -11     1     3     3     0     0  3.342799272E-02 -4.596016979E-01  2.571064823E-02  4.615327182E-01  5.110000000E-04  0.00000E+00  9.000E+00
      21     1     1     2   501   502  7.216980981E-01 -3.868679314E-01 -1.336657160E+00  1.567535424E+00  3.942476677E-08  0.00000E+00  9.000E+00
      -4     1     1     2     0   511 -2.581500676E-01  3.128540693E-01 -3.811780217E-01  5.566110044E-01  0.000000000E+00  0.00000E+00  9.000E+00
#rwgt            2          42   3243231.0233180234                3    15233249           0
<weights>
0.11145E+08
0.11794E+08
0.10151E+08
0.14334E+08
0.81338E+07
0.91702E+07
0.13910E+08
0.11202E+08
0.11086E+08
0.10864E+08
0.10875E+08
0.10974E+08
0.11045E+08
0.10890E+08
0.10883E+08
0.11222E+08
0.11177E+08
0.11409E+08
0.11417E+08
0.11413E+08
0.11388E+08
0.11430E+08
0.11456E+08
0.11294E+08
0.11338E+08
0.11289E+08
0.11132E+08
0.11378E+08
0.11311E+08
0.11401E+08
0.11442E+08
0.11166E+08
0.11213E+08
0.11140E+08
0.11168E+08
0.11237E+08
0.11068E+08
0.11059E+08
0.11158E+08
0.11148E+08
0.11144E+08
0.11172E+08
0.11118E+08
0.11444E+08
0.10868E+08
</weights>
</event>
<event>
      6  10001  1.11453E+07  8.94427E-01 -1.00000E+00  5.98753E-01
      21    -1     0     0   502   501  0.000000000E+00  0.000000000E+00  1.517343023E+01  1.517343023E+01  0.000000000E+00  0.00000E+00  9.000E+00
       4    -1     0     0   501     0  0.000000000E+00  0.000000000E+00 -5.583944013E-01  5.583944013E-01  0.000000000E+00  0.00000E+00  9.000E+00
      23     2     1     2     0     0 -9.033754526E-01  6.174616257E-01  1.429172782E+01  1.459082763E+01  2.727896816E+00  0.00000E+00  9.000E+00
      11     1     3     3     0     0 -1.043328476E+00  9.946768264E-02  1.765754831E+00  2.053367603E+00  5.110000000E-04  0.00000E+00  9.000E+00
     -11     1     3     3     0     0  1.399530232E-01  5.179939431E-01  1.252597298E+01  1.253746003E+01  5.110000000E-04  0.00000E+00  9.000E+00
       4     1     1     2   502     0  9.033754526E-01 -6.174616257E-01  3.233080087E-01  1.140996992E+00  0.000000000E+00  0.00000E+00  9.000E+00
#rwgt            1          19   149984.13362235299                3    15233633           0
<weights>
0.11145E+08
0.12552E+08
0.97001E+07
0.12580E+08
0.94628E+07
0.10955E+08
0.11170E+08
0.11190E+08
0.11097E+08
0.10784E+08
0.10760E+08
0.10939E+08
0.10987E+08
0.10797E+08
0.10773E+08
0.11238E+08
0.11233E+08
0.11524E+08
0.11538E+08
0.11533E+08
0.11494E+08
0.11564E+08
0.11576E+08
0.11412E+08
0.11371E+08
0.11338E+08
0.11201E+08
0.11500E+08
0.11401E+08
0.11546E+08
0.11576E+08
0.11202E+08
0.11217E+08
0.11129E+08
0.11191E+08
0.11227E+08
0.11082E+08
0.11184E+08
0.11026E+08
0.11182E+08
0.11114E+08
0.11187E+08
0.11102E+08
0.11561E+08
0.10765E+08
</weights>
</event>
<event>
      7  10001  1.11453E+07  2.54578E+00 -1.00000E+00  3.14363E-01
      -4    -1     0     0     0   502  0.000000000E+00  0.000000000E+00  1.944043511E+01  1.944043511E+01  0.000000000E+00  0.00000E+00  9.000E+00
      21    -1     0     0   502   501  0.000000000E+00  0.000000000E+00 -7.149626944E-01  7.149626944E-01  0.000000000E+00  0.00000E+00  9.000E+00
      23     2     1     2     0     0  7.432801837E-01  5.785779309E-01  1.827543479E+01  1.834750929E+01  1.323768298E+00  0.00000E+00  9.000E+00
      11     1     3     3     0     0  1.619292338E-01 -1.693460119E-01  5.636497134E-01  6.104100335E-01  5.110000000E-04  0.00000E+00  9.000E+00
     -11     1     3     3     0     0  5.813509499E-01  7.479239428E-01  1.771178508E+01  1.773709926E+01  5.110000000E-04  0.00000E+00  9.000E+00
      -4     1     1     2     0   511  4.134529272E-01 -3.585929336E-01  2.906475183E-01  6.196839476E-01  0.000000000E+00  0.00000E+00  9.000E+00
      21     1     1     2   511   501 -1.156733111E+00 -2.199849972E-01  1.593901079E-01  1.188204568E+00  9.599401598E-08  0.00000E+00  9.000E+00
#rwgt            1           3   4254753.8769416222                3    15245045           0
<weights>
0.11199E+08
0.14804E+08
0.73954E+07
0.13822E+08
0.84628E+07
0.11956E+08
0.97686E+07
0.11221E+08
0.11172E+08
0.10765E+08
0.10703E+08
0.10964E+08
0.10980E+08
0.10760E+08
0.10721E+08
0.11303E+08
0.11344E+08
0.11683E+08
0.11724E+08
0.11714E+08
0.11646E+08
0.11747E+08
0.11752E+08
0.11602E+08
0.11441E+08
0.11425E+08
0.11385E+08
0.11668E+08
0.11550E+08
0.11740E+08
0.11760E+08
0.11291E+08
0.11274E+08
0.11174E+08
0.11266E+08
0.11257E+08
0.11164E+08
0.11360E+08
0.10928E+08
0.11271E+08
0.11137E+08
0.11258E+08
0.11137E+08
0.11726E+08
0.10722E+08
</weights>
</event>
<event>
      7  10001  1.11453E+07  5.40695E+00 -1.00000E+00  2.31372E-01
       2    -1     0     0   501     0  0.000000000E+00  0.000000000E+00  3.087708157E+02  3.087708157E+02  0.000000000E+00  0.00000E+00  9.000E+00
      21    -1     0     0   512   502  0.000000000E+00  0.000000000E+00 -4.120490728E+00  4.120490728E+00  0.000000000E+00  0.00000E+00  9.000E+00
      23     2     1     2     0     0  2.482073337E-01  7.435850386E-01 -1.248179306E-01  1.557762951E+00  1.340343353E+00  0.00000E+00  9.000E+00
      11     1     3     3     0     0  7.547206553E-01  1.493286271E-01 -1.714250160E-02  7.695430026E-01  5.110000000E-04  0.00000E+00  9.000E+00
     -11     1     3     3     0     0 -5.065133216E-01  5.942564114E-01 -1.076754290E-01  7.882199481E-01  5.110000000E-04  0.00000E+00  9.000E+00
      21     1     1     2   501   502  2.275450825E+00  4.038285750E+00  3.057959452E+02  3.058310735E+02  6.607249480E-06  0.00000E+00  9.000E+00
       2     1     1     2   512     0 -2.523658159E+00 -4.781870789E+00 -1.020802266E+00  5.502469992E+00  0.000000000E+00  0.00000E+00  9.000E+00
#rwgt            1          23   1589333.0761138769                3    15288728           0
<weights>
0.11145E+08
0.11029E+08
0.11245E+08
0.12204E+08
0.99291E+07
0.10042E+08
0.12571E+08
0.11059E+08
0.11244E+08
0.10833E+08
0.10810E+08
0.10975E+08
0.10987E+08
0.10846E+08
0.10822E+08
0.11190E+08
0.11265E+08
0.11480E+08
0.11465E+08
0.11453E+08
0.11459E+08
0.11505E+08
0.11511E+08
0.11397E+08
0.11312E+08
0.11348E+08
0.11133E+08
0.11465E+08
0.11320E+08
0.11489E+08
0.11506E+08
0.11160E+08
0.11241E+08
0.11144E+08
0.11174E+08
0.11083E+08
0.11236E+08
0.11141E+08
0.11075E+08
0.11165E+08
0.11127E+08
0.11206E+08
0.11081E+08
0.11502E+08
0.10818E+08
</weights>
</event>
<event>
      6  10001 -1.11453E+07  8.94427E-01 -1.00000E+00  6.25863E-01
      -2    -1     0     0     0   502  0.000000000E+00  0.000000000E+00  6.828657371E+01  6.828657371E+01  0.000000000E+00  0.00000E+00  9.000E+00
      21    -1     0     0   502   501  0.000000000E+00  0.000000000E+00 -1.535380064E-02  1.535380064E-02  0.000000000E+00  0.00000E+00  9.000E+00
      23     2     1     2     0     0  2.997600496E-01  5.911245169E-01  4.018985483E+01  4.021274189E+01  1.183593903E+00  0.00000E+00  9.000E+00
      11     1     3     3     0     0  2.813959252E-01  7.143552156E-01  1.302971246E+01  1.305231375E+01  5.110000000E-04  0.00000E+00  9.000E+00
     -11     1     3     3     0     0  1.836412431E-02 -1.232306987E-01  2.716014237E+01  2.716042814E+01  5.110000000E-04  0.00000E+00  9.000E+00
      -2     1     1     2     0   501 -2.997600496E-01 -5.911245169E-01  2.808136508E+01  2.808918562E+01  0.000000000E+00  0.00000E+00  9.000E+00
#rwgt            1           7  -2761184.3136373074                3    15291925           0
<weights>
-.11145E+08
-.12559E+08
-.95473E+07
-.15271E+08
-.76500E+07
-.91658E+07
-.13909E+08
-.11172E+08
-.11120E+08
-.10824E+08
-.10814E+08
-.10962E+08
-.11007E+08
-.10842E+08
-.10825E+08
-.11226E+08
-.11210E+08
-.11461E+08
-.11502E+08
-.11490E+08
-.11438E+08
-.11500E+08
-.11519E+08
-.11410E+08
-.11328E+08
-.11287E+08
-.11350E+08
-.11434E+08
-.11371E+08
-.11478E+08
-.11512E+08
-.11183E+08
-.11217E+08
-.11138E+08
-.11177E+08
-.11209E+08
-.11101E+08
-.11131E+08
-.11085E+08
-.11166E+08
-.11128E+08
-.11185E+08
-.11104E+08
-.11504E+08
-.10815E+08
</weights>
</event>
<event>
      6  10001 -1.11453E+07  8.94427E-01 -1.00000E+00  6.07515E-01
      21    -1     0     0   502   501  0.000000000E+00  0.000000000E+00  6.977677793E-02  6.977677793E-02  0.000000000E+00  0.00000E+00  9.000E+00
       1    -1     0     0   501     0  0.000000000E+00  0.000000000E+00 -1.076631158E+02  1.076631158E+02  0.000000000E+00  0.00000E+00  9.000E+00
      23     2     1     2     0     0  1.045904547E-01  2.700247177E-01 -1.046664108E+02  1.047916749E+02  5.114071728E+00  0.00000E+00  9.000E+00
      11     1     3     3     0     0 -1.364894151E+00 -1.927790936E+00 -6.060895515E+01  6.065496484E+01  5.110000000E-04  0.00000E+00  9.000E+00
     -11     1     3     3     0     0  1.469484605E+00  2.197815654E+00 -4.405745563E+01  4.413671007E+01  5.110000000E-04  0.00000E+00  9.000E+00
       1     1     1     2   502     0 -1.045904547E-01 -2.700247177E-01 -2.926928202E+00  2.941217641E+00  0.000000000E+00  0.00000E+00  9.000E+00
#rwgt            1          16  -783399.38077130716                3    15293678           0
<weights>
-.11145E+08
-.78252E+07
-.14489E+08
-.12881E+08
-.93646E+07
-.68710E+07
-.17439E+08
-.11192E+08
-.11100E+08
-.11218E+08
-.11247E+08
-.11302E+08
-.11019E+08
-.11235E+08
-.11235E+08
-.10538E+08
-.11835E+08
-.10646E+08
-.11526E+08
-.11593E+08
-.10595E+08
-.11096E+08
-.10976E+08
-.11310E+08
-.10838E+08
-.10852E+08
-.11287E+08
-.11391E+08
-.10621E+08
-.11128E+08
-.11004E+08
-.11101E+08
-.11159E+08
-.10695E+08
-.11610E+08
-.11131E+08
-.11149E+08
-.11163E+08
-.11148E+08
-.11195E+08
-.11095E+08
-.11180E+08
-.11108E+08
-.11047E+08
-.11234E+08
</weights>
</event>
<event>
      7  10001  1.11453E+07  4.27162E+00 -1.00000E+00  2.53982E-01
      21    -1     0     0   502   501  0.000000000E+00  0.000000000E+00  9.468662323E-02  9.468662323E-02  0.000000000E+00  0.00000E+00  9.000E+00
       2    -1     0     0   501     0  0.000000000E+00  0.000000000E+00 -5.968183060E+01  5.968183060E+01  0.000000000E+00  0.00000E+00  9.000E+00
      23     2     1     2     0     0 -3.339000769E-01  2.002118024E-01 -4.619080856E+01  4.620928102E+01  1.247110042E+00  0.00000E+00  9.000E+00
      11     1     3     3     0     0 -7.631774322E-01  4.030660727E-03 -2.062346162E+01  2.063757800E+01  5.110000000E-04  0.00000E+00  9.000E+00
     -11     1     3     3     0     0  4.292773553E-01  1.961811417E-01 -2.556734693E+01  2.557170302E+01  5.110000000E-04  0.00000E+00  9.000E+00
       2     1     1     2   511     0  6.724200672E-02 -6.952275731E-03 -1.316407019E+01  1.316424376E+01  0.000000000E+00  0.00000E+00  9.000E+00
      21     1     1     2   502   511  2.666580701E-01 -1.932595267E-01 -2.322652337E-01  4.029924438E-01  5.519215908E-08  0.00000E+00  9.000E+00
#rwgt            2         189   7728165.1638547415                3    15309424           0
<weights>
0.11145E+08
0.11316E+08
0.10747E+08
0.13753E+08
0.86114E+07
0.91702E+07
0.13910E+08
0.11178E+08
0.11113E+08
0.11100E+08
0.11134E+08
0.11157E+08
0.11075E+08
0.11129E+08
0.11134E+08
0.11120E+08
0.11156E+08
0.11068E+08
0.11260E+08
0.11271E+08
0.11059E+08
0.11154E+08
0.11147E+08
0.11235E+08
0.11071E+08
0.11092E+08
0.11167E+08
0.11285E+08
0.10934E+08
0.11157E+08
0.11135E+08
0.11140E+08
0.11150E+08
0.11069E+08
0.11247E+08
0.11125E+08
0.11162E+08
0.11056E+08
0.11245E+08
0.11081E+08
0.11197E+08
0.11204E+08
0.11083E+08
0.11164E+08
0.11122E+08
</weights>
</event>
<event>
      6  10001 -1.11453E+07  8.94427E-01 -1.00000E+00  1.85432E-01
      21    -1     0     0   502   501  0.000000000E+00  0.000000000E+00  1.727322428E-02  1.727322428E-02  0.000000000E+00  0.00000E+00  9.000E+00
       4    -1     0     0   501     0  0.000000000E+00  0.000000000E+00 -3.169784126E+01  3.169784126E+01  0.000000000E+00  0.00000E+00  9.000E+00
      23     2     1     2     0     0  8.043454366E-02  2.417486732E-01 -2.970285513E+01  2.972105820E+01  1.008357762E+00  0.00000E+00  9.000E+00
      11     1     3     3     0     0  2.429019276E-01  1.947077043E-01 -2.884540451E+01  2.884708433E+01  5.110000000E-04  0.00000E+00  9.000E+00
     -11     1     3     3     0     0 -1.624673839E-01  4.704096884E-02 -8.574506226E-01  8.739738754E-01  5.110000000E-04  0.00000E+00  9.000E+00
       4     1     1     2   502     0 -8.043454366E-02 -2.417486732E-01 -1.977712904E+00  1.994056285E+00  0.000000000E+00  0.00000E+00  9.000E+00
#rwgt            1          19  -1958743.4754288583                3    15309827           0
<weights>
-.11145E+08
-.12913E+08
-.92605E+07
-.15694E+08
-.74200E+07
-.91702E+07
-.13910E+08
-.11244E+08
-.11047E+08
-.10883E+08
-.10968E+08
-.10955E+08
-.11127E+08
-.10949E+08
-.10969E+08
-.11193E+08
-.11141E+08
-.11306E+08
-.11325E+08
-.11319E+08
-.11298E+08
-.11309E+08
-.11359E+08
-.11176E+08
-.11354E+08
-.11318E+08
-.11054E+08
-.11292E+08
-.11185E+08
-.11248E+08
-.11321E+08
-.11099E+08
-.11246E+08
-.11167E+08
-.11127E+08
-.11314E+08
-.10994E+08
-.10794E+08
-.11474E+08
-.11087E+08
-.11199E+08
-.11133E+08
-.11159E+08
-.11363E+08
-.10931E+08
</weights>
</event>
<event>
      7  10001 -1.11453E+07  1.32653E+00 -1.00000E+00  4.64393E-01
      -1    -1     0     0     0   502  0.000000000E+00  0.000000000E+00  6.522996373E+01  6.522996373E+01  0.000000000E+00  0.00000E+00  9.000E+00
      21    -1     0     0   502   511  0.000000000E+00  0.000000000E+00 -3.643211253E+01  3.643211253E+01  0.000000000E+00  0.00000E+00  9.000E+00
      23     2     1     2     0     0 -1.209267543E+00 -5.502692758E-03  5.305970230E+01  5.311899379E+01  2.198439010E+00  0.00000E+00  9.000E+00
      11     1     3     3     0     0 -1.163627429E+00  3.828623066E-01  5.137117582E+01  5.138577933E+01  5.110000000E-04  0.00000E+00  9.000E+00
     -11     1     3     3     0     0 -4.564011497E-02 -3.883649994E-01  1.688526485E+00  1.733214454E+00  5.110000000E-04  0.00000E+00  9.000E+00
      -1     1     1     2     0   501  1.761309629E-02 -5.772918503E-01  1.212165258E+01  1.213540430E+01  0.000000000E+00  0.00000E+00  9.000E+00
      21     1     1     2   501   511  1.191654447E+00  5.827945430E-01 -3.638350369E+01  3.640767818E+01  0.000000000E+00  0.00000E+00  9.000E+00
#rwgt            1           9  -98668.348331183413                3    15317873           0
<weights>
-.11145E+08
-.71417E+07
-.14727E+08
-.16093E+08
-.73055E+07
-.43178E+07
-.21359E+08
-.11293E+08
-.10980E+08
-.11016E+08
-.11114E+08
-.11032E+08
-.11179E+08
-.11074E+08
-.11110E+08
-.11202E+08
-.11044E+08
-.11183E+08
-.11121E+08
-.11138E+08
-.11177E+08
-.11146E+08
-.11215E+08
-.10915E+08
-.11336E+08
-.11229E+08
-.10523E+08
-.11129E+08
-.11099E+08
-.11089E+08
-.11161E+08
-.11086E+08
-.11207E+08
-.11162E+08
-.11117E+08
-.11312E+08
-.10980E+08
-.10749E+08
-.11475E+08
-.11071E+08
-.11211E+08
-.11131E+08
-.11161E+08
-.11206E+08
-.11075E+08
</weights>
</event>
<event>
      6  10001 -1.11453E+07  8.94427E-01 -1.00000E+00  6.07153E-01
      21    -1     0     0   502   501  0.000000000E+00  0.000000000E+00  4.693258225E-02  4.693258225E-02  0.000000000E+00  0.00000E+00  9.000E+00
       2    -1     0     0   501     0  0.000000000E+00  0.000000000E+00 -1.964681835E+01  1.964681835E+01  0.000000000E+00  0.00000E+00  9.000E+00
      23     2     1     2     0     0  5.186800215E-03 -2.805457881E-01 -1.862396758E+01  1.867829578E+01  1.395647614E+00  0.00000E+00  9.000E+00
      11     1     3     3     0     0 -9.628033673E-02 -6.972792427E-01 -1.629288765E+01  1.630808562E+01  5.110000000E-04  0.00000E+00  9.000E+00
     -11     1     3     3     0     0  1.014671369E-01  4.167334545E-01 -2.331079925E+00  2.370210165E+00  5.110000000E-04  0.00000E+00  9.000E+00
       2     1     1     2   502     0 -5.186800215E-03  2.805457881E-01 -9.759181911E-01  1.015455148E+00  0.000000000E+00  0.00000E+00  9.000E+00
#rwgt            1          17  -711093.81540655345                3    15324873           0
<weights>
-.11145E+08
-.10156E+08
-.11375E+08
-.18491E+08
-.56000E+07
-.52609E+07
-.19911E+08
-.11201E+08
-.11092E+08
-.11095E+08
-.11148E+08
-.11074E+08
-.11192E+08
-.11139E+08
-.11150E+08
-.11200E+08
-.11027E+08
-.11136E+08
-.11111E+08
-.11110E+08
-.11136E+08
-.11122E+08
-.11133E+08
-.11134E+08
-.11141E+08
-.11128E+08
-.11130E+08
-.11123E+08
-.11094E+08
-.11095E+08
-.11129E+08
-.11109E+08
-.11175E+08
-.11145E+08
-.11139E+08
-.11265E+08
-.11027E+08
-.10959E+08
-.11363E+08
-.11083E+08
-.11201E+08
-.11135E+08
-.11156E+08
-.11153E+08
-.11127E+08
</weights>
</event>
<event>
      6  10001 -1.11453E+07  8.94427E-01 -1.00000E+00  4.02569E-01
      21    -1     0     0   502   501  0.000000000E+00  0.000000000E+00  4.326443096E-03  4.326443096E-03  0.000000000E+00  0.00000E+00  9.000E+00
       2    -1     0     0   501     0  0.000000000E+00  0.000000000E+00 -2.956722461E+02  2.956722461E+02  0.000000000E+00  0.00000E+00  9.000E+00
      23     2     1     2     0     0 -1.076712559E-01  3.395890304E-01 -2.854423840E+02  2.854448330E+02  1.127480050E+00  0.00000E+00  9.000E+00
      11     1     3     3     0     0  4.454476738E-01  3.053825467E-01 -8.707052058E+01  8.707219554E+01  5.110000000E-04  0.00000E+00  9.000E+00
     -11     1     3     3     0     0 -5.531189297E-01  3.420648362E-02 -1.983718634E+02  1.983726375E+02  5.110000000E-04  0.00000E+00  9.000E+00
       2     1     1     2   502     0  1.076712559E-01 -3.395890304E-01 -1.022553568E+01  1.023173953E+01  0.000000000E+00  0.00000E+00  9.000E+00
#rwgt            1          17  -28347499.826027911                3    15333461           0
<weights>
-.11145E+08
-.12521E+08
-.94889E+07
-.15218E+08
-.76030E+07
-.91702E+07
-.13910E+08
-.11127E+08
-.11162E+08
-.11170E+08
-.11162E+08
-.11052E+08
-.11257E+08
-.11164E+08
-.11162E+08
-.11334E+08
-.10859E+08
-.11338E+08
-.10835E+08
-.10796E+08
-.11359E+08
-.11104E+08
-.11156E+08
-.11128E+08
-.11114E+08
-.11207E+08
-.11099E+08
-.10913E+08
-.11360E+08
-.11088E+08
-.11160E+08
-.11032E+08
-.11253E+08
-.11342E+08
-.10892E+08
-.11125E+08
-.11161E+08
-.11166E+08
-.11126E+08
-.11200E+08
-.11094E+08
-.11151E+08
-.11139E+08
-.11123E+08
-.11167E+08
</weights>
</event>
<event>
      6  10001 -1.11453E+07  8.94427E-01 -1.00000E+00  2.47571E-01
      21    -1     0     0   502   501  0.000000000E+00  0.000000000E+00  1.220381774E-02  1.220381774E-02  0.000000000E+00  0.00000E+00  9.000E+00
       2    -1     0     0   501     0  0.000000000E+00  0.000000000E+00 -6.319620377E+02  6.319620377E+02  0.000000000E+00  0.00000E+00  9.000E+00
      23     2     1     2     0     0 -7.905149259E-01  1.831593712E+00 -1.627342145E+02  1.627543814E+02  1.607622193E+00  0.00000E+00  9.000E+00
      11     1     3     3     0     0 -1.126095647E+00  1.901433694E+00 -1.452162434E+02  1.452330572E+02  5.110000000E-04  0.00000E+00  9.000E+00
     -11     1     3     3     0     0  3.355807212E-01 -6.983998240E-02 -1.751797108E+01  1.752132424E+01  5.110000000E-04  0.00000E+00  9.000E+00
       2     1     1     2   502     0  7.905149259E-01 -1.831593712E+00 -4.692156193E+02  4.692198600E+02  0.000000000E+00  0.00000E+00  9.000E+00
#rwgt            1          17  -26655666.891175073                3    15335063           0
<weights>
-.11145E+08
-.11665E+08
-.10482E+08
-.14177E+08
-.83984E+07
-.91702E+07
-.13910E+08
-.11132E+08
-.11158E+08
-.11163E+08
-.11145E+08
-.10952E+08
-.11362E+08
-.11154E+08
-.11149E+08
-.11185E+08
-.11077E+08
-.11533E+08
-.10610E+08
-.10531E+08
-.11582E+08
-.11112E+08
-.11173E+08
-.10992E+08
-.11265E+08
-.11442E+08
-.10964E+08
-.10656E+08
-.11703E+08
-.11057E+08
-.11201E+08
-.11052E+08
-.11236E+08
-.11622E+08
-.10571E+08
-.11078E+08
-.11207E+08
-.11134E+08
-.11165E+08
-.11285E+08
-.11021E+08
-.11126E+08
-.11165E+08
-.11136E+08
-.11155E+08
</weights>
</event>
<event>
      6  10001 -1.11453E+07  8.94427E-01 -1.00000E+00  4.48024E-01
       2    -1     0     0   501     0  0.000000000E+00  0.000000000E+00  7.476193951E+01  7.476193951E+01  0.000000000E+00  0.00000E+00  9.000E+00
      21    -1     0     0   502   501  0.000000000E+00  0.000000000E+00 -1.668886326E-02  1.668886326E-02  0.000000000E+00  0.00000E+00  9.000E+00
      23     2     1     2     0     0 -1.143505332E-01 -8.294542249E-01  5.393860114E+01  5.395513841E+01  1.040768015E+00  0.00000E+00  9.000E+00
      11     1     3     3     0     0  1.413211732E-01 -1.730954644E-01  3.832971039E+01  3.833036176E+01  5.110000000E-04  0.00000E+00  9.000E+00
     -11     1     3     3     0     0 -2.556717064E-01 -6.563587605E-01  1.560889075E+01  1.562477666E+01  5.110000000E-04  0.00000E+00  9.000E+00
       2     1     1     2   502     0  1.143505332E-01  8.294542249E-01  2.080664951E+01  2.082348996E+01  0.000000000E+00  0.00000E+00  9.000E+00
#rwgt            1          24  -6027053.5338121504                3    15335776           0
<weights>
-.11145E+08
-.12763E+08
-.93699E+07
-.15521E+08
-.75079E+07
-.91648E+07
-.13909E+08
-.11174E+08
-.11117E+08
-.10828E+08
-.10821E+08
-.10964E+08
-.11011E+08
-.10847E+08
-.10831E+08
-.11225E+08
-.11207E+08
-.11455E+08
-.11494E+08
-.11483E+08
-.11432E+08
-.11492E+08
-.11513E+08
-.11399E+08
-.11328E+08
-.11285E+08
-.11333E+08
-.11427E+08
-.11365E+08
-.11469E+08
-.11505E+08
-.11181E+08
-.11217E+08
-.11138E+08
-.11176E+08
-.11211E+08
-.11098E+08
-.11123E+08
-.11093E+08
-.11164E+08
-.11130E+08
-.11184E+08
-.11105E+08
-.11498E+08
-.10821E+08
</weights>
</event>
<event>
      6  10001 -1.11453E+07  8.94427E-01 -1.00000E+00  6.06429E-01
       5    -1     0     0   501     0  0.000000000E+00  0.000000000E+00  2.148948476E+01  2.148948476E+01  0.000000000E+00  0.00000E+00  9.000E+00
      21    -1     0     0   502   501  0.000000000E+00  0.000000000E+00 -7.109317168E-02  7.109317168E-02  0.000000000E+00  0.00000E+00  9.000E+00
      23     2     1     2     0     0 -3.165340723E-01 -1.567002938E-01  2.072316831E+01  2.078078039E+01  1.505450090E+00  0.00000E+00  9.000E+00
      11     1     3     3     0     0 -2.846242461E-01  3.702385822E-01  1.804701129E+01  1.805305249E+01  5.110000000E-04  0.00000E+00  9.000E+00
     -11     1     3     3     0     0 -3.190982620E-02 -5.269388760E-01  2.676157024E+00  2.727727899E+00  5.110000000E-04  0.00000E+00  9.000E+00
       5     1     1     2   502     0  3.165340723E-01  1.567002938E-01  6.952232798E-01  7.797975441E-01  0.000000000E+00  0.00000E+00  9.000E+00
#rwgt            1          30  -172510.50585157861                3    15338329           0
<weights>
-.11145E+08
-.89871E+07
-.12343E+08
-.14884E+08
-.80202E+07
-.68341E+07
-.17496E+08
-.11220E+08
-.11065E+08
-.10905E+08
-.10938E+08
-.10991E+08
-.11078E+08
-.10938E+08
-.10942E+08
-.11216E+08
-.11143E+08
-.11347E+08
-.11345E+08
-.11345E+08
-.11330E+08
-.11354E+08
-.11393E+08
-.11208E+08
-.11330E+08
-.11264E+08
-.11021E+08
-.11309E+08
-.11259E+08
-.11318E+08
-.11367E+08
-.11144E+08
-.11212E+08
-.11147E+08
-.11153E+08
-.11250E+08
-.11052E+08
-.10976E+08
-.11241E+08
-.11127E+08
-.11162E+08
-.11163E+08
-.11127E+08
-.11381E+08
-.10923E+08
</weights>
</event>
<event>
      6  10001 -1.11453E+07  8.94427E-01 -1.00000E+00  2.98176E-01
      -2    -1     0     0     0   502  0.000000000E+00  0.000000000E+00  1.807209763E+02  1.807209763E+02  0.000000000E+00  0.00000E+00  9.000E+00
      21    -1     0     0   502   501  0.000000000E+00  0.000000000E+00 -1.604861685E-02  1.604861685E-02  0.000000000E+00  0.00000E+00  9.000E+00
      23     2     1     2     0     0  1.079074577E+00  1.021692427E+00  1.207497121E+02  1.207633963E+02  1.047210223E+00  0.00000E+00  9.000E+00
      11     1     3     3     0     0  6.859725183E-01  2.412896446E-01  8.459821863E+01  8.460134381E+01  5.110000000E-04  0.00000E+00  9.000E+00
     -11     1     3     3     0     0  3.931020587E-01  7.804027828E-01  3.615149349E+01  3.616205248E+01  5.110000000E-04  0.00000E+00  9.000E+00
      -2     1     1     2     0   501 -1.079074577E+00 -1.021692427E+00  5.995521557E+01  5.997362863E+01  0.000000000E+00  0.00000E+00  9.000E+00
#rwgt            1           7  -1941569.3495394576                3    15339819           0
<weights>
-.11145E+08
-.12618E+08
-.94349E+07
-.15343E+08
-.75599E+07
-.91659E+07
-.13909E+08
-.11143E+08
-.11147E+08
-.10972E+08
-.10942E+08
-.11026E+08
-.11079E+08
-.10973E+08
-.10956E+08
-.11203E+08
-.11173E+08
-.11338E+08
-.11351E+08
-.11340E+08
-.11325E+08
-.11360E+08
-.11364E+08
-.11321E+08
-.11238E+08
-.11230E+08
-.11284E+08
-.11317E+08
-.11284E+08
-.11355E+08
-.11367E+08
-.11180E+08
-.11176E+08
-.11123E+08
-.11184E+08
-.11175E+08
-.11126E+08
-.11190E+08
-.11042E+08
-.11149E+08
-.11143E+08
-.11170E+08
-.11119E+08
-.11355E+08
-.10954E+08
</weights>
</event>
<event>
      6  10001 -1.11453E+07  8.94427E-01 -1.00000E+00  2.80939E-01
      21    -1     0     0   502   501  0.000000000E+00  0.000000000E+00  7.815380694E-04  7.815380694E-04  0.000000000E+00  0.00000E+00  9.000E+00
       2    -1     0     0   501     0  0.000000000E+00  0.000000000E+00 -7.180669432E+02  7.180669432E+02  0.000000000E+00  0.00000E+00  9.000E+00
      23     2     1     2     0     0  2.921455192E-01  1.699612013E-02 -5.120182013E+02  5.120195566E+02  1.141142142E+00  0.00000E+00  9.000E+00
      11     1     3     3     0     0  5.578625228E-01  4.176316049E-01 -2.959687546E+02  2.959695750E+02  5.110000000E-04  0.00000E+00  9.000E+00
     -11     1     3     3     0     0 -2.657170037E-01 -4.006354848E-01 -2.160494468E+02  2.160499816E+02  5.110000000E-04  0.00000E+00  9.000E+00
       2     1     1     2   502     0 -2.921455192E-01 -1.699612013E-02 -2.060479603E+02  2.060481681E+02  0.000000000E+00  0.00000E+00  9.000E+00
#rwgt            1          17  -47407432.520689599                3    15342004           0
<weights>
-.11147E+08
-.12509E+08
-.94753E+07
-.15232E+08
-.75931E+07
-.91530E+07
-.13910E+08
-.11135E+08
-.11157E+08
-.11164E+08
-.11142E+08
-.10932E+08
-.11386E+08
-.11154E+08
-.11148E+08
-.11061E+08
-.11260E+08
-.11570E+08
-.10570E+08
-.10481E+08
-.11626E+08
-.11119E+08
-.11171E+08
-.10954E+08
-.11310E+08
-.11531E+08
-.10915E+08
-.10591E+08
-.11793E+08
-.11052E+08
-.11210E+08
-.11099E+08
-.11191E+08
-.11705E+08
-.10482E+08
-.11063E+08
-.11224E+08
-.11126E+08
-.11178E+08
-.11310E+08
-.11002E+08
-.11122E+08
-.11173E+08
-.11139E+08
-.11155E+08
</weights>
</event>
<event>
      6  10001 -1.11453E+07  8.94427E-01 -1.00000E+00  2.41524E-01
      21    -1     0     0   502   501  0.000000000E+00  0.000000000E+00  2.807996940E-01  2.807996940E-01  0.000000000E+00  0.00000E+00  9.000E+00
      -5    -1     0     0     0   502  0.000000000E+00  0.000000000E+00 -2.072415741E+00  2.072415741E+00  0.000000000E+00  0.00000E+00  9.000E+00
      23     2     1     2     0     0  1.600299204E-01 -2.496796794E-01 -1.443850488E+00  1.896170139E+00  1.192814927E+00  0.00000E+00  9.000E+00
      11     1     3     3     0     0  5.667416294E-02 -2.427571282E-01  1.552772514E-01  2.936907727E-01  5.110000000E-04  0.00000E+00  9.000E+00
     -11     1     3     3     0     0  1.033557574E-01 -6.922551199E-03 -1.599127739E+00  1.602479367E+00  5.110000000E-04  0.00000E+00  9.000E+00
      -5     1     1     2     0   501 -1.600299204E-01  2.496796794E-01 -3.477655591E-01  4.570452952E-01  0.000000000E+00  0.00000E+00  9.000E+00
#rwgt            1          11  -344627.83096536371                3    15343371           0
<weights>
-.11145E+08
-.10099E+08
-.11310E+08
-.15755E+08
-.74516E+07
-.71417E+07
-.17024E+08
-.11204E+08
-.11084E+08
-.10908E+08
-.10935E+08
-.10993E+08
-.11077E+08
-.10940E+08
-.10941E+08
-.11212E+08
-.11151E+08
-.11347E+08
-.11354E+08
-.11351E+08
-.11332E+08
-.11359E+08
-.11391E+08
-.11240E+08
-.11317E+08
-.11263E+08
-.11114E+08
-.11314E+08
-.11263E+08
-.11326E+08
-.11371E+08
-.11147E+08
-.11210E+08
-.11145E+08
-.11157E+08
-.11240E+08
-.11063E+08
-.11001E+08
-.11227E+08
-.11129E+08
-.11160E+08
-.11163E+08
-.11127E+08
-.11382E+08
-.10923E+08
</weights>
</event>
<event>
      6  10001  1.11453E+07  8.94427E-01 -1.00000E+00  6.07179E-01
      -2    -1     0     0     0   502  0.000000000E+00  0.000000000E+00  6.701920980E+00  6.701920980E+00  0.000000000E+00  0.00000E+00  9.000E+00
       2    -1     0     0   501     0  0.000000000E+00  0.000000000E+00 -1.034795309E-01  1.034795309E-01  0.000000000E+00  0.00000E+00  9.000E+00
      23     2     1     2     0     0  1.459127418E-01 -2.079436103E-01  4.674474803E+00  4.864736004E+00  1.323030850E+00  0.00000E+00  9.000E+00
      11     1     3     3     0     0  2.078771416E-01 -6.062329357E-01  4.170210571E+00  4.219169082E+00  5.110000000E-04  0.00000E+00  9.000E+00
     -11     1     3     3     0     0 -6.196439980E-02  3.982893255E-01  5.042642329E-01  6.455669224E-01  5.110000000E-04  0.00000E+00  9.000E+00
      21     1     1     2   501   502 -1.459127418E-01  2.079436103E-01  1.923966646E+00  1.940664506E+00  2.980232239E-08  0.00000E+00  9.000E+00
#rwgt            1           8   50130.010956222330                3    15346637           0
<weights>
0.11145E+08
0.18194E+08
0.57480E+07
0.45435E+07
0.14333E+08
0.20156E+08
-.29546E+07
0.10043E+08
0.12588E+08
0.10680E+08
0.10484E+08
0.10986E+08
0.10705E+08
0.10634E+08
0.10518E+08
0.11060E+08
0.11661E+08
0.11790E+08
0.11797E+08
0.11733E+08
0.11771E+08
0.11891E+08
0.11780E+08
0.12070E+08
0.11098E+08
0.11498E+08
0.11690E+08
0.11873E+08
0.11452E+08
0.11937E+08
0.11833E+08
0.11158E+08
0.11359E+08
0.11117E+08
0.11256E+08
0.10382E+08
0.12038E+08
0.11584E+08
0.10656E+08
0.11247E+08
0.11047E+08
0.11346E+08
0.10932E+08
0.11792E+08
0.10568E+08
</weights>
</event>
<event>
      6  10001 -1.11453E+07  8.94427E-01 -1.00000E+00  5.15815E-01
       1    -1     0     0   501     0  0.000000000E+00  0.000000000E+00  1.044580918E+02  1.044580918E+02  0.000000000E+00  0.00000E+00  9.000E+00
      21    -1     0     0   502   501  0.000000000E+00  0.000000000E+00 -8.975722912E-03  8.975722912E-03  0.000000000E+00  0.00000E+00  9.000E+00
      23     2     1     2     0     0  5.026983058E-01  1.863408803E-01  8.939550703E+01  8.940391467E+01  1.102657139E+00  0.00000E+00  9.000E+00
      11     1     3     3     0     0  2.543908822E-01  6.083480622E-01  6.594387985E+01  6.594717653E+01  5.110000000E-04  0.00000E+00  9.000E+00
     -11     1     3     3     0     0  2.483074235E-01 -4.220071819E-01  2.345162718E+01  2.345673814E+01  5.110000000E-04  0.00000E+00  9.000E+00
       1     1     1     2   502     0 -5.026983058E-01 -1.863408803E-01  1.505360907E+01  1.506315288E+01  0.000000000E+00  0.00000E+00  9.000E+00
#rwgt            1          22  -2123903.1065000533                3    15348098           0
<weights>
-.11145E+08
-.12236E+08
-.99045E+07
-.14878E+08
-.79362E+07
-.91664E+07
-.13909E+08
-.11180E+08
-.11111E+08
-.10839E+08
-.10838E+08
-.10968E+08
-.11020E+08
-.10860E+08
-.10847E+08
-.11223E+08
-.11198E+08
-.11439E+08
-.11474E+08
-.11464E+08
-.11417E+08
-.11472E+08
-.11496E+08
-.11374E+08
-.11328E+08
-.11281E+08
-.11299E+08
-.11409E+08
-.11350E+08
-.11447E+08
-.11485E+08
-.11175E+08
-.11216E+08
-.11140E+08
-.11173E+08
-.11216E+08
-.11093E+08
-.11100E+08
-.11116E+08
-.11159E+08
-.11134E+08
-.11181E+08
-.11108E+08
-.11481E+08
-.10835E+08
</weights>
</event>
<event>
      6  10001 -1.11453E+07  8.94427E-01 -1.00000E+00  3.54813E-01
      21    -1     0     0   502   501  0.000000000E+00  0.000000000E+00  4.024680400E-04  4.024680400E-04  0.000000000E+00  0.00000E+00  9.000E+00
       2    -1     0     0   501     0  0.000000000E+00  0.000000000E+00 -1.414006401E+03  1.414006401E+03  0.000000000E+00  0.00000E+00  9.000E+00
      23     2     1     2     0     0  4.314167497E-02  2.609709603E-01 -9.036181064E+02  9.036188427E+02  1.122884555E+00  0.00000E+00  9.000E+00
      11     1     3     3     0     0  2.758679163E-02 -2.378881288E-01 -4.854292569E+01  4.854351642E+01  5.110000000E-04  0.00000E+00  9.000E+00
     -11     1     3     3     0     0  1.555488334E-02  4.988590891E-01 -8.550751808E+02  8.550753265E+02  5.110000000E-04  0.00000E+00  9.000E+00
       2     1     1     2   502     0 -4.314167497E-02 -2.609709603E-01 -5.103878923E+02  5.103879608E+02  0.000000000E+00  0.00000E+00  9.000E+00
#rwgt            1          17  -1367206.9721669855                3    15350583           0
<weights>
-.11145E+08
-.18527E+08
-.36077E+06
-.22518E+08
-.28907E+06
-.91702E+07
-.13910E+08
-.11151E+08
-.11140E+08
-.11171E+08
-.11116E+08
-.10894E+08
-.11423E+08
-.11150E+08
-.11141E+08
-.98557E+07
-.13276E+08
-.11575E+08
-.10568E+08
-.10444E+08
-.11659E+08
-.11176E+08
-.11102E+08
-.10784E+08
-.11498E+08
-.12140E+08
-.10579E+08
-.10339E+08
-.12134E+08
-.11054E+08
-.11211E+08
-.11659E+08
-.10643E+08
-.12089E+08
-.10077E+08
-.10972E+08
-.11306E+08
-.11079E+08
-.11231E+08
-.11415E+08
-.10911E+08
-.11094E+08
-.11199E+08
-.11143E+08
-.11148E+08
</weights>
</event>
<event>
      7  10001 -1.11453E+07  1.43782E+00 -1.00000E+00  4.39702E-01
      -2    -1     0     0     0   502  0.000000000E+00  0.000000000E+00  4.221566931E+01  4.221566931E+01  0.000000000E+00  0.00000E+00  9.000E+00
      21    -1     0     0   511   501  0.000000000E+00  0.000000000E+00 -1.871535496E+02  1.871535496E+02  0.000000000E+00  0.00000E+00  9.000E+00
      23     2     1     2     0     0  1.420425392E+00  6.301823800E-01  2.621367684E+01  2.628340100E+01  1.116054041E+00  0.00000E+00  9.000E+00
      11     1     3     3     0     0 -1.175509447E-01 -3.212000342E-02  5.761343324E+00  5.762631958E+00  5.110000000E-04  0.00000E+00  9.000E+00
     -11     1     3     3     0     0  1.537976336E+00  6.623023834E-01  2.045233351E+01  2.052076904E+01  5.110000000E-04  0.00000E+00  9.000E+00
      -2     1     1     2     0   501 -2.473803868E-02 -2.846772051E-01  1.596308965E+01  1.596564701E+01  0.000000000E+00  0.00000E+00  9.000E+00
      21     1     1     2   511   502 -1.395687353E+00 -3.455051749E-01 -1.871146468E+02  1.871201709E+02  2.697398305E-06  0.00000E+00  9.000E+00
#rwgt            1           7  -388423.42749968712                3    15351471           0
<weights>
-.11145E+08
-.75171E+07
-.14254E+08
-.16386E+08
-.72287E+07
-.45268E+07
-.21038E+08
-.11294E+08
-.10979E+08
-.11017E+08
-.11120E+08
-.11038E+08
-.11173E+08
-.11076E+08
-.11114E+08
-.11205E+08
-.11034E+08
-.11174E+08
-.11121E+08
-.11139E+08
-.11168E+08
-.11138E+08
-.11214E+08
-.10916E+08
-.11325E+08
-.11195E+08
-.10543E+08
-.11111E+08
-.11108E+08
-.11079E+08
-.11155E+08
-.11083E+08
-.11208E+08
-.11168E+08
-.11111E+08
-.11301E+08
-.10991E+08
-.10734E+08
-.11485E+08
-.11069E+08
-.11212E+08
-.11136E+08
-.11155E+08
-.11202E+08
-.11079E+08
</weights>
</event>
<event>
      6  10001 -1.11453E+07  8.94427E-01 -1.00000E+00  3.55594E-01
      21    -1     0     0   502   501  0.000000000E+00  0.000000000E+00  3.478252104E-03  3.478252104E-03  0.000000000E+00  0.00000E+00  9.000E+00
       2    -1     0     0   501     0  0.000000000E+00  0.000000000E+00 -5.642296076E+02  5.642296076E+02  0.000000000E+00  0.00000E+00  9.000E+00
      23     2     1     2     0     0  3.959084582E-01  3.815677783E-03 -5.508139835E+02  5.508150973E+02  1.034571375E+00  0.00000E+00  9.000E+00
      11     1     3     3     0     0  3.657000068E-01 -2.002709201E-01 -8.134501899E+01  8.134608755E+01  5.110000000E-04  0.00000E+00  9.000E+00
     -11     1     3     3     0     0  3.020845139E-02  2.040865979E-01 -4.694689644E+02  4.694690098E+02  5.110000000E-04  0.00000E+00  9.000E+00
       2     1     1     2   502     0 -3.959084582E-01 -3.815677783E-03 -1.341214591E+01  1.341798852E+01  0.000000000E+00  0.00000E+00  9.000E+00
#rwgt            1          17  -83332177.114170864                3    15367227           0
<weights>
-.11145E+08
-.11038E+08
-.11164E+08
-.13415E+08
-.89450E+07
-.91702E+07
-.13910E+08
-.11131E+08
-.11159E+08
-.11163E+08
-.11147E+08
-.10961E+08
-.11353E+08
-.11155E+08
-.11150E+08
-.11212E+08
-.11038E+08
-.11516E+08
-.10630E+08
-.10554E+08
-.11562E+08
-.11111E+08
-.11172E+08
-.11006E+08
-.11249E+08
-.11415E+08
-.10979E+08
-.10681E+08
-.11669E+08
-.11060E+08
-.11198E+08
-.11045E+08
-.11244E+08
-.11593E+08
-.10603E+08
-.11083E+08
-.11203E+08
-.11138E+08
-.11161E+08
-.11277E+08
-.11028E+08
-.11128E+08
-.11163E+08
-.11135E+08
-.11156E+08
</weights>
</event>
<event>
      7  10001  1.11453E+07  8.94427E-01 -1.00000E+00  6.07649E-01
      -2    -1     0     0     0   502  0.000000000E+00  0.000000000E+00  9.065467183E-02  9.065467183E-02  0.000000000E+00  0.00000E+00  9.000E+00
      21    -1     0     0   501   511  0.000000000E+00  0.000000000E+00 -1.102475760E+02  1.102475760E+02  0.000000000E+00  0.00000E+00  9.000E+00
      23     2     1     2     0     0 -9.984493850E-02  6.716880601E-01 -1.085876034E+01  1.102425659E+01  1.777758001E+00  0.00000E+00  9.000E+00
      11     1     3     3     0     0  1.546649126E-01  3.865838362E-01 -4.677708088E-01  6.262412381E-01  5.110000000E-04  0.00000E+00  9.000E+00
     -11     1     3     3     0     0 -2.545098511E-01  2.851042238E-01 -1.039098953E+01  1.039801536E+01  5.110000000E-04  0.00000E+00  9.000E+00
      21     1     1     2   501   502 -1.372925249E-01 -4.352398635E-01 -9.549701939E+01  9.549810990E+01  1.907348633E-06  0.00000E+00  9.000E+00
      -2     1     1     2     0   511  2.371374634E-01 -2.364481966E-01 -3.801141650E+00  3.815864223E+00  0.000000000E+00  0.00000E+00  9.000E+00
#rwgt            2         102   367685.84312736534                3    15367488           0
<weights>
0.11145E+08
0.10411E+08
0.11896E+08
0.12653E+08
0.95318E+07
0.91702E+07
0.13910E+08
0.11149E+08
0.11141E+08
0.11203E+08
0.11223E+08
0.11087E+08
0.11284E+08
0.11250E+08
0.11242E+08
0.11143E+08
0.11056E+08
0.11051E+08
0.10982E+08
0.10977E+08
0.11064E+08
0.11034E+08
0.10982E+08
0.11095E+08
0.11045E+08
0.11086E+08
0.11142E+08
0.11050E+08
0.11040E+08
0.11015E+08
0.11024E+08
0.11110E+08
0.11146E+08
0.11143E+08
0.11139E+08
0.11195E+08
0.11095E+08
0.10996E+08
0.11357E+08
0.11044E+08
0.11239E+08
0.11100E+08
0.11194E+08
0.11048E+08
0.11221E+08
</weights>
</event>
<event>
      6  10001 -1.11453E+07  8.94427E-01 -1.00000E+00  4.53446E-01
       2    -1     0     0   501     0  0.000000000E+00  0.000000000E+00  5.073794778E+01  5.073794778E+01  0.000000000E+00  0.00000E+00  9.000E+00
      21    -1     0     0   502   501  0.000000000E+00  0.000000000E+00 -2.462676635E-02  2.462676635E-02  0.000000000E+00  0.00000E+00  9.000E+00
      23     2     1     2     0     0  6.416835388E-01 -3.032151193E-01  1.913745686E+01  1.917873542E+01  1.038238850E+00  0.00000E+00  9.000E+00
      11     1     3     3     0     0  5.632656993E-01  2.804560587E-01  1.224875419E+01  1.226490535E+01  5.110000000E-04  0.00000E+00  9.000E+00
     -11     1     3     3     0     0  7.841783942E-02 -5.836711780E-01  6.888702671E+00  6.913830064E+00  5.110000000E-04  0.00000E+00  9.000E+00
       2     1     1     2   502     0 -6.416835388E-01  3.032151193E-01  3.157586415E+01  3.158383913E+01  0.000000000E+00  0.00000E+00  9.000E+00
#rwgt            1          24  -23274566.944092073                3    15367853           0
<weights>
-.11145E+08
-.12742E+08
-.93692E+07
-.15509E+08
-.75079E+07
-.91565E+07
-.13908E+08
-.11165E+08
-.11128E+08
-.10814E+08
-.10799E+08
-.10959E+08
-.10998E+08
-.10830E+08
-.10810E+08
-.11227E+08
-.11219E+08
-.11475E+08
-.11523E+08
-.11509E+08
-.11451E+08
-.11518E+08
-.11536E+08
-.11437E+08
-.11328E+08
-.11289E+08
-.11400E+08
-.11449E+08
-.11385E+08
-.11498E+08
-.11531E+08
-.11188E+08
-.11218E+08
-.11137E+08
-.11180E+08
-.11203E+08
-.11108E+08
-.11150E+08
-.11066E+08
-.11171E+08
-.11124E+08
-.11188E+08
-.11101E+08
-.11520E+08
-.10801E+08
</weights>
</event>
<event>
      7  10001  1.11453E+07  3.91785E+00 -1.00000E+00  2.62373E-01
       3    -1     0     0   511     0  0.000000000E+00  0.000000000E+00  2.629287280E+01  2.629287280E+01  0.000000000E+00  0.00000E+00  9.000E+00
      21    -1     0     0   502   501  0.000000000E+00  0.000000000E+00 -2.276283170E+01  2.276283170E+01  0.000000000E+00  0.00000E+00  9.000E+00
      23     2     1     2     0     0  1.149290760E+00  5.555428315E-01 -1.460033076E+00  2.645508817E+00  1.799311876E+00  0.00000E+00  9.000E+00
      11     1     3     3     0     0 -4.903445703E-01  6.478435601E-02 -3.322507588E-01  5.958402792E-01  5.110000000E-04  0.00000E+00  9.000E+00
     -11     1     3     3     0     0  1.639635330E+00  4.907584755E-01 -1.127782317E+00  2.049668538E+00  5.110000000E-04  0.00000E+00  9.000E+00
       3     1     1     2   502     0 -3.577506576E+00  2.519088024E+00 -2.032658818E+01  2.079217508E+01  0.000000000E+00  0.00000E+00  9.000E+00
      21     1     1     2   511   501  2.428215815E+00 -3.074630856E+00  2.531666235E+01  2.561802060E+01  3.371747881E-07  0.00000E+00  9.000E+00
#rwgt            1          26   480520.52718460909                3    15372045           0
<weights>
0.11125E+08
0.12308E+08
0.10145E+08
0.12583E+08
0.94637E+07
0.10790E+08
0.11803E+08
0.11218E+08
0.11030E+08
0.10780E+08
0.10824E+08
0.10919E+08
0.11015E+08
0.10816E+08
0.10826E+08
0.11204E+08
0.11174E+08
0.11420E+08
0.11453E+08
0.11450E+08
0.11397E+08
0.11436E+08
0.11504E+08
0.11239E+08
0.11413E+08
0.11357E+08
0.11019E+08
0.11394E+08
0.11278E+08
0.11390E+08
0.11455E+08
0.11125E+08
0.11223E+08
0.11127E+08
0.11139E+08
0.11274E+08
0.10996E+08
0.10914E+08
0.11223E+08
0.11123E+08
0.11129E+08
0.11148E+08
0.11103E+08
0.11472E+08
0.10802E+08
</weights>
</event>
<event>
      6  10001 -1.11453E+07  8.94427E-01 -1.00000E+00  6.07186E-01
      21    -1     0     0   502   501  0.000000000E+00  0.000000000E+00  6.192703571E-02  6.192703571E-02  0.000000000E+00  0.00000E+00  9.000E+00
      -2    -1     0     0     0   502  0.000000000E+00  0.000000000E+00 -1.155987460E+01  1.155987460E+01  0.000000000E+00  0.00000E+00  9.000E+00
      23     2     1     2     0     0  2.781430055E-01  1.005341884E-01 -1.012595452E+01  1.021829333E+01  1.338317210E+00  0.00000E+00  9.000E+00
      11     1     3     3     0     0  3.804071791E-01 -8.765529338E-02 -9.897293993E+00  9.904989738E+00  5.110000000E-04  0.00000E+00  9.000E+00
     -11     1     3     3     0     0 -1.022641736E-01  1.881894817E-01 -2.286605287E-01  3.133035920E-01  5.110000000E-04  0.00000E+00  9.000E+00
      -2     1     1     2     0   501 -2.781430055E-01 -1.005341884E-01 -1.371993046E+00  1.403508309E+00  0.000000000E+00  0.00000E+00  9.000E+00
#rwgt            1          14  -1005477.5026313049                3    15375866           0
<weights>
-.11145E+08
-.86836E+07
-.12910E+08
-.15713E+08
-.74867E+07
-.59347E+07
-.18877E+08
-.11249E+08
-.11043E+08
-.11002E+08
-.11072E+08
-.11018E+08
-.11169E+08
-.11055E+08
-.11073E+08
-.11201E+08
-.11073E+08
-.11208E+08
-.11209E+08
-.11208E+08
-.11204E+08
-.11201E+08
-.11237E+08
-.11113E+08
-.11275E+08
-.11194E+08
-.11099E+08
-.11171E+08
-.11165E+08
-.11156E+08
-.11215E+08
-.11122E+08
-.11188E+08
-.11159E+08
-.11129E+08
-.11327E+08
-.10968E+08
-.10887E+08
-.11400E+08
-.11088E+08
-.11198E+08
-.11132E+08
-.11159E+08
-.11244E+08
-.11043E+08
</weights>
</event>
<event>
      7  10001  1.11453E+07  2.24375E+00 -1.00000E+00  3.33881E-01
      21    -1     0     0   511   502  0.000000000E+00  0.000000000E+00  8.002708158E-01  8.002708158E-01  0.000000000E+00  0.00000E+00  9.000E+00
      21    -1     0     0   502   501  0.000000000E+00  0.000000000E+00 -7.613837195E+01  7.613837195E+01  0.000000000E+00  0.00000E+00  9.000E+00
      23     2     1     2     0     0  4.252234211E-02  3.843014896E-01 -4.252434314E+01  4.262203861E+01  2.858132227E+00  0.00000E+00  9.000E+00
      11     1     3     3     0     0 -8.824471889E-01  5.188357741E-01 -3.734514177E+01  3.735916912E+01  5.110000000E-04  0.00000E+00  9.000E+00
     -11     1     3     3     0     0  9.249695310E-01 -1.345342845E-01 -5.179201374E+00  5.262869487E+00  5.110000000E-04  0.00000E+00  9.000E+00
      -2     1     1     2     0   501 -9.365843501E-01 -2.442229390E+00 -3.170706006E+01  3.181476594E+01  0.000000000E+00  0.00000E+00  9.000E+00
       2     1     1     2   511     0  8.940620080E-01  2.057927901E+00 -1.106697936E+00  2.501838213E+00  0.000000000E+00  0.00000E+00  9.000E+00
#rwgt            1           7   372608.16582635813                3    15388282           0
<weights>
0.11145E+08
0.11855E+08
0.10337E+08
0.12173E+08
0.99094E+07
0.10756E+08
0.11475E+08
0.11276E+08
0.11017E+08
0.10840E+08
0.10980E+08
0.10936E+08
0.11122E+08
0.10949E+08
0.10974E+08
0.11213E+08
0.11083E+08
0.11300E+08
0.11289E+08
0.11280E+08
0.11294E+08
0.11293E+08
0.11335E+08
0.11137E+08
0.11379E+08
0.11305E+08
0.11047E+08
0.11253E+08
0.11172E+08
0.11207E+08
0.11305E+08
0.11064E+08
0.11279E+08
0.11186E+08
0.11103E+08
0.11350E+08
0.10962E+08
0.10647E+08
0.11675E+08
0.11064E+08
0.11219E+08
0.11138E+08
0.11153E+08
0.11366E+08
0.10920E+08
</weights>
</event>
<event>
      6  10001 -1.11453E+07  8.94427E-01 -1.00000E+00  2.23100E-01
      21    -1     0     0   502   501  0.000000000E+00  0.000000000E+00  1.150638435E-03  1.150638435E-03  0.000000000E+00  0.00000E+00  9.000E+00
       2    -1     0     0   501     0  0.000000000E+00  0.000000000E+00 -4.995541700E+02  4.995541700E+02  0.000000000E+00  0.00000E+00  9.000E+00
      23     2     1     2     0     0  2.425151630E-01  7.488237540E-02 -3.555342200E+02  3.555362976E+02  1.188661008E+00  0.00000E+00  9.000E+00
      11     1     3     3     0     0  7.178636696E-01  1.522940762E-01 -2.141267707E+02  2.141280282E+02  5.110000000E-04  0.00000E+00  9.000E+00
     -11     1     3     3     0     0 -4.753485066E-01 -7.741170078E-02 -1.414074492E+02  1.414082694E+02  5.110000000E-04  0.00000E+00  9.000E+00
       2     1     1     2   502     0 -2.425151630E-01 -7.488237540E-02 -1.440187994E+02  1.440190231E+02  0.000000000E+00  0.00000E+00  9.000E+00
#rwgt            1          17  -3083281.7492140243                3    15408781           0
<weights>
-.11145E+08
-.10601E+08
-.11602E+08
-.12885E+08
-.92959E+07
-.91702E+07
-.13910E+08
-.11130E+08
-.11160E+08
-.11165E+08
-.11150E+08
-.10981E+08
-.11332E+08
-.11156E+08
-.11152E+08
-.11271E+08
-.10954E+08
-.11479E+08
-.10672E+08
-.10605E+08
-.11519E+08
-.11109E+08
-.11172E+08
-.11037E+08
-.11215E+08
-.11357E+08
-.11013E+08
-.10736E+08
-.11597E+08
-.11066E+08
-.11190E+08
-.11028E+08
-.11260E+08
-.11530E+08
-.10674E+08
-.11094E+08
-.11192E+08
-.11145E+08
-.11152E+08
-.11258E+08
-.11044E+08
-.11133E+08
-.11158E+08
-.11133E+08
-.11158E+08
</weights>
</event>
<event>
      7  10001  1.11453E+07  1.88619E+00 -1.00000E+00  3.65194E-01
      -4    -1     0     0     0   502  0.000000000E+00  0.000000000E+00  2.733141328E-01  2.733141328E-01  0.000000000E+00  0.00000E+00  9.000E+00
      21    -1     0     0   502   501  0.000000000E+00  0.000000000E+00 -7.704800374E+00  7.704800374E+00  0.000000000E+00  0.00000E+00  9.000E+00
      23     2     1     2     0     0 -1.249248951E-01  6.807917142E-02 -2.303822935E+00  2.537120071E+00  1.053155797E+00  0.00000E+00  9.000E+00
      11     1     3     3     0     0 -2.402765417E-01  5.154633811E-01 -9.567253086E-01  1.112995459E+00  5.110000000E-04  0.00000E+00  9.000E+00
     -11     1     3     3     0     0  1.153516466E-01 -4.473842097E-01 -1.347097627E+00  1.424124612E+00  5.110000000E-04  0.00000E+00  9.000E+00
      -4     1     1     2     0   511 -8.067359382E-01 -4.719231988E-02 -3.191733941E+00  3.292448259E+00  0.000000000E+00  0.00000E+00  9.000E+00
      21     1     1     2   511   501  9.316608333E-01 -2.088685154E-02 -1.935929364E+00  2.148546177E+00  3.650024150E-08  0.00000E+00  9.000E+00
#rwgt            1           3   994793.57064718951                3    15409062           0
<weights>
0.11145E+08
0.14013E+08
0.83487E+07
0.12185E+08
0.95087E+07
0.12287E+08
0.91246E+07
0.11244E+08
0.11040E+08
0.10588E+08
0.10569E+08
0.10840E+08
0.10897E+08
0.10599E+08
0.10580E+08
0.11275E+08
0.11302E+08
0.11720E+08
0.11755E+08
0.11754E+08
0.11673E+08
0.11772E+08
0.11830E+08
0.11472E+08
0.11558E+08
0.11508E+08
0.11060E+08
0.11695E+08
0.11505E+08
0.11738E+08
0.11795E+08
0.11217E+08
0.11266E+08
0.11124E+08
0.11208E+08
0.11304E+08
0.11014E+08
0.11130E+08
0.10964E+08
0.11217E+08
0.11083E+08
0.11203E+08
0.11086E+08
0.11778E+08
0.10568E+08
</weights>
</event>
<event>
      7  10001  1.11453E+07  1.51460E+00 -1.00000E+00  4.14744E-01
      -4    -1     0     0     0   502  0.000000000E+00  0.000000000E+00  5.123097473E+00  5.123097473E+00  0.000000000E+00  0.00000E+00  9.000E+00
      21    -1     0     0   502   512  0.000000000E+00  0.000000000E+00 -1.189313849E+02  1.189313849E+02  0.000000000E+00  0.00000E+00  9.000E+00
      23     2     1     2     0     0  3.729717681E-01 -3.643888516E-01  3.643129810E+00  3.960368258E+00  1.462954119E+00  0.00000E+00  9.000E+00
      11     1     3     3     0     0  7.563596351E-03 -6.993801069E-01  7.517476561E-01  1.026798199E+00  5.110000000E-04  0.00000E+00  9.000E+00
     -11     1     3     3     0     0  3.654081717E-01  3.349912553E-01  2.891382154E+00  2.933570059E+00  5.110000000E-04  0.00000E+00  9.000E+00
      -4     1     1     2     0   501  1.133276212E+00  5.232206554E-01  1.020635121E+00  1.612380500E+00  0.000000000E+00  0.00000E+00  9.000E+00
      21     1     1     2   501   512 -1.506247980E+00 -1.588318038E-01 -1.184720524E+02  1.184817336E+02  1.907348633E-06  0.00000E+00  9.000E+00
#rwgt            1           3   228098.37458733091                3    15432032           0
<weights>
0.11145E+08
0.21396E+08
0.21272E+07
0.92823E+07
0.10835E+08
0.19624E+08
-.21383E+07
0.11089E+08
0.11199E+08
0.10468E+08
0.10284E+08
0.10813E+08
0.10729E+08
0.10417E+08
0.10319E+08
0.11295E+08
0.11473E+08
0.11986E+08
0.12083E+08
0.12057E+08
0.11923E+08
0.12126E+08
0.12075E+08
0.12004E+08
0.11441E+08
0.11484E+08
0.11789E+08
0.11996E+08
0.11807E+08
0.12156E+08
0.12137E+08
0.11359E+08
0.11229E+08
0.11086E+08
0.11288E+08
0.11131E+08
0.11199E+08
0.11749E+08
0.10411E+08
0.11333E+08
0.10983E+08
0.11262E+08
0.11023E+08
0.12040E+08
0.10347E+08
</weights>
</event>
<event>
      6  10001 -1.11453E+07  8.94427E-01 -1.00000E+00  4.73261E-01
      21    -1     0     0   502   501  0.000000000E+00  0.000000000E+00  2.383865309E-02  2.383865309E-02  0.000000000E+00  0.00000E+00  9.000E+00
       2    -1     0     0   501     0  0.000000000E+00  0.000000000E+00 -1.051058457E+02  1.051058457E+02  0.000000000E+00  0.00000E+00  9.000E+00
      23     2     1     2     0     0  8.345342962E-02 -7.812172516E-01 -7.434830469E+01  7.438594149E+01  2.231729313E+00  0.00000E+00  9.000E+00
      11     1     3     3     0     0 -4.727896815E-01 -7.700330056E-01 -6.949156812E+01  6.949744255E+01  5.110000000E-04  0.00000E+00  9.000E+00
     -11     1     3     3     0     0  5.562431111E-01 -1.118424597E-02 -4.856736570E+00  4.888498937E+00  5.110000000E-04  0.00000E+00  9.000E+00
       2     1     1     2   502     0 -8.345342962E-02  7.812172516E-01 -3.073370238E+01  3.074374289E+01  0.000000000E+00  0.00000E+00  9.000E+00
#rwgt            1          17  -14323704.869191255                3    15452590           0
<weights>
-.11145E+08
-.12627E+08
-.95303E+07
-.15346E+08
-.76362E+07
-.91702E+07
-.13910E+08
-.11150E+08
-.11140E+08
-.11153E+08
-.11167E+08
-.11156E+08
-.11124E+08
-.11168E+08
-.11168E+08
-.11194E+08
-.11038E+08
-.11096E+08
-.11140E+08
-.11144E+08
-.11092E+08
-.11116E+08
-.11116E+08
-.11228E+08
-.11021E+08
-.11067E+08
-.11178E+08
-.11194E+08
-.10998E+08
-.11126E+08
-.11112E+08
-.11120E+08
-.11160E+08
-.11104E+08
-.11193E+08
-.11136E+08
-.11149E+08
-.11130E+08
-.11168E+08
-.11105E+08
-.11176E+08
-.11191E+08
-.11096E+08
-.11122E+08
-.11163E+08
</weights>
</event>
<event>
      6  10001 -1.11453E+07  8.94427E-01 -1.00000E+00  4.44001E-01
      21    -1     0     0   502   501  0.000000000E+00  0.000000000E+00  2.509329732E-02  2.509329732E-02  0.000000000E+00  0.00000E+00  9.000E+00
      -4    -1     0     0     0   502  0.000000000E+00  0.000000000E+00 -6.199142521E+01  6.199142521E+01  0.000000000E+00  0.00000E+00  9.000E+00
      23     2     1     2     0     0  7.170178600E-01 -8.370375058E-02 -2.525939268E+01  2.530248156E+01  1.287452425E+00  0.00000E+00  9.000E+00
      11     1     3     3     0     0 -1.777019322E-01  1.403560725E-01 -1.500058603E+01  1.500229514E+01  5.110000000E-04  0.00000E+00  9.000E+00
     -11     1     3     3     0     0  8.947197922E-01 -2.240598231E-01 -1.025880664E+01  1.030018642E+01  5.110000000E-04  0.00000E+00  9.000E+00
      -4     1     1     2     0   501 -7.170178600E-01  8.370375058E-02 -3.670693924E+01  3.671403695E+01  0.000000000E+00  0.00000E+00  9.000E+00
#rwgt            1          12  -4806290.7845345270                3    15454767           0
<weights>
-.11145E+08
-.13200E+08
-.89721E+07
-.16043E+08
-.71890E+07
-.91702E+07
-.13910E+08
-.11218E+08
-.11073E+08
-.11011E+08
-.11094E+08
-.10988E+08
-.11226E+08
-.11096E+08
-.11105E+08
-.11171E+08
-.11077E+08
-.11173E+08
-.11140E+08
-.11133E+08
-.11177E+08
-.11164E+08
-.11156E+08
-.11126E+08
-.11203E+08
-.11193E+08
-.11105E+08
-.11161E+08
-.11095E+08
-.11107E+08
-.11164E+08
-.11084E+08
-.11216E+08
-.11169E+08
-.11117E+08
-.11289E+08
-.11015E+08
-.10783E+08
-.11561E+08
-.11036E+08
-.11247E+08
-.11106E+08
-.11188E+08
-.11212E+08
-.11063E+08
</weights>
</event>
<event>
      7  10001 -1.11453E+07  9.89023E-01 -1.00000E+00  5.66866E-01
       3    -1     0     0   501     0  0.000000000E+00  0.000000000E+00  2.997955777E+00  2.997955777E+00  0.000000000E+00  0.00000E+00  9.000E+00
      21    -1     0     0   511   501  0.000000000E+00  0.000000000E+00 -1.212076084E+01  1.212076084E+01  0.000000000E+00  0.00000E+00  9.000E+00
      23     2     1     2     0     0  9.638888094E-02 -4.123354266E-01  1.737206920E+00  2.100695152E+00  1.102597352E+00  0.00000E+00  9.000E+00
      11     1     3     3     0     0 -2.823522084E-01 -6.493883550E-01  8.420023119E-01  1.100180058E+00  5.110000000E-04  0.00000E+00  9.000E+00
     -11     1     3     3     0     0  3.787410893E-01  2.370529284E-01  8.952046076E-01  1.000515094E+00  5.110000000E-04  0.00000E+00  9.000E+00
       3     1     1     2   502     0 -4.781047658E-02 -5.754941591E-01  9.796154069E-01  1.137156856E+00  0.000000000E+00  0.00000E+00  9.000E+00
      21     1     1     2   511   502 -4.857840436E-02  9.878295857E-01 -1.183962739E+01  1.188086461E+01  0.000000000E+00  0.00000E+00  9.000E+00
#rwgt            1          26  -262663.86270430457                3    15457454           0
<weights>
-.11136E+08
-.10855E+08
-.10826E+08
-.16985E+08
-.66432E+07
-.68170E+07
-.17498E+08
-.11192E+08
-.11075E+08
-.11015E+08
-.11051E+08
-.11032E+08
-.11138E+08
-.11045E+08
-.11056E+08
-.11183E+08
-.11093E+08
-.11215E+08
-.11201E+08
-.11200E+08
-.11209E+08
-.11206E+08
-.11240E+08
-.11114E+08
-.11246E+08
-.11196E+08
-.11002E+08
-.11181E+08
-.11161E+08
-.11176E+08
-.11216E+08
-.11116E+08
-.11178E+08
-.11135E+08
-.11137E+08
-.11222E+08
-.11055E+08
-.10948E+08
-.11266E+08
-.11091E+08
-.11176E+08
-.11137E+08
-.11135E+08
-.11235E+08
-.11037E+08
</weights>
</event>
<event>
      6  10001 -1.11453E+07  8.94427E-01 -1.00000E+00  1.74535E-01
       2    -1     0     0   501     0  0.000000000E+00  0.000000000E+00  5.677025039E+01  5.677025039E+01  0.000000000E+00  0.00000E+00  9.000E+00
      21    -1     0     0   502   501  0.000000000E+00  0.000000000E+00 -1.342919712E-02  1.342919712E-02  0.000000000E+00  0.00000E+00  9.000E+00
      23     2     1     2     0     0 -2.509307723E-01  6.788687698E-02  5.410979587E+01  5.412392059E+01  1.208799279E+00  0.00000E+00  9.000E+00
      11     1     3     3     0     0  2.988041434E-01  2.847223991E-02  4.056281751E+00  4.067372185E+00  5.110000000E-04  0.00000E+00  9.000E+00
     -11     1     3     3     0     0 -5.497349157E-01  3.941463707E-02  5.005351412E+01  5.005654840E+01  5.110000000E-04  0.00000E+00  9.000E+00
       2     1     1     2   502     0  2.509307723E-01 -6.788687698E-02  2.647025320E+00  2.659758998E+00  0.000000000E+00  0.00000E+00  9.000E+00
#rwgt            1          24  -3417301.0930977548                3    15461891           0
<weights>
-.11145E+08
-.12348E+08
-.97659E+07
-.15014E+08
-.78251E+07
-.91664E+07
-.13909E+08
-.11171E+08
-.11120E+08
-.10823E+08
-.10813E+08
-.10962E+08
-.11006E+08
-.10841E+08
-.10824E+08
-.11226E+08
-.11211E+08
-.11462E+08
-.11504E+08
-.11492E+08
-.11439E+08
-.11501E+08
-.11521E+08
-.11412E+08
-.11328E+08
-.11287E+08
-.11353E+08
-.11435E+08
-.11372E+08
-.11479E+08
-.11514E+08
-.11184E+08
-.11217E+08
-.11138E+08
-.11178E+08
-.11208E+08
-.11101E+08
-.11132E+08
-.11084E+08
-.11166E+08
-.11128E+08
-.11185E+08
-.11104E+08
-.11506E+08
-.10814E+08
</weights>
</event>
<event>
      7  10001  1.11453E+07  9.88057E-01 -1.00000E+00  5.67248E-01
      21    -1     0     0   502   511  0.000000000E+00  0.000000000E+00  3.311324790E+01  3.311324790E+01  0.000000000E+00  0.00000E+00  9.000E+00
       1    -1     0     0   501     0  0.000000000E+00  0.000000000E+00 -3.910264893E-01  3.910264893E-01  0.000000000E+00  0.00000E+00  9.000E+00
      23     2     1     2     0     0  3.349931072E-01  1.205203132E-03  2.878306513E+00  3.268151398E+00  1.511272094E+00  0.00000E+00  9.000E+00
      11     1     3     3     0     0  5.146765385E-01  4.723970595E-01  5.592010754E-01  8.948502807E-01  5.110000000E-04  0.00000E+00  9.000E+00
     -11     1     3     3     0     0 -1.796834313E-01 -4.711918564E-01  2.319105438E+00  2.373301117E+00  5.110000000E-04  0.00000E+00  9.000E+00
       1     1     1     2   502     0 -4.405061826E-01  9.812014107E-01  1.354535577E+00  1.729615141E+00  0.000000000E+00  0.00000E+00  9.000E+00
      21     1     1     2   501   511  1.055130755E-01 -9.824066138E-01  2.848937932E+01  2.850650785E+01  3.371747881E-07  0.00000E+00  9.000E+00
#rwgt            1          16   55817.210904273939                3    15465767           0
<weights>
0.11145E+08
0.16154E+08
0.70302E+07
0.81255E+07
0.12298E+08
0.16536E+08
0.26031E+07
0.10551E+08
0.11854E+08
0.10760E+08
0.10635E+08
0.10944E+08
0.10879E+08
0.10737E+08
0.10663E+08
0.11262E+08
0.11321E+08
0.11775E+08
0.11477E+08
0.11424E+08
0.11771E+08
0.11696E+08
0.11666E+08
0.11664E+08
0.11264E+08
0.11516E+08
0.11227E+08
0.11601E+08
0.11486E+08
0.11708E+08
0.11690E+08
0.11172E+08
0.11289E+08
0.11279E+08
0.11070E+08
0.10698E+08
0.11667E+08
0.11394E+08
0.10833E+08
0.11192E+08
0.11099E+08
0.11290E+08
0.10991E+08
0.11652E+08
0.10689E+08
</weights>
</event>
<event>
      7  10001  1.11453E+07  3.46054E+00 -1.00000E+00  2.75507E-01
      -2    -1     0     0     0   502  0.000000000E+00  0.000000000E+00  1.951158531E+01  1.951158531E+01  0.000000000E+00  0.00000E+00  9.000E+00
      21    -1     0     0   502   511  0.000000000E+00  0.000000000E+00 -5.690366760E+00  5.690366760E+00  0.000000000E+00  0.00000E+00  9.000E+00
      23     2     1     2     0     0  1.625913535E+00  1.095250485E+00  1.231956118E+01  1.262943396E+01  1.971762151E+00  0.00000E+00  9.000E+00
      11     1     3     3     0     0 -1.991181482E-01  6.027790275E-01  1.275226163E+00  1.424497322E+00  5.110000000E-04  0.00000E+00  9.000E+00
     -11     1     3     3     0     0  1.825031683E+00  4.924714575E-01  1.104433502E+01  1.120493664E+01  5.110000000E-04  0.00000E+00  9.000E+00
      -2     1     1     2     0   501  1.753914736E+00 -1.838289180E+00  6.221305800E+00  6.720131685E+00  0.000000000E+00  0.00000E+00  9.000E+00
      21     1     1     2   501   511 -3.379828270E+00  7.430386946E-01 -4.719648428E+00  5.852386429E+00  1.685873940E-07  0.00000E+00  9.000E+00
#rwgt            1           7   613055.99813752261                3    15473193           0
<weights>
0.11145E+08
0.10953E+08
0.12319E+08
0.85445E+07
0.12799E+08
0.12310E+08
0.90904E+07
0.11161E+08
0.11127E+08
0.10708E+08
0.10649E+08
0.10897E+08
0.10933E+08
0.10706E+08
0.10669E+08
0.11255E+08
0.11261E+08
0.11627E+08
0.11670E+08
0.11655E+08
0.11591E+08
0.11688E+08
0.11698E+08
0.11564E+08
0.11382E+08
0.11353E+08
0.11402E+08
0.11595E+08
0.11499E+08
0.11677E+08
0.11704E+08
0.11222E+08
0.11234E+08
0.11116E+08
0.11216E+08
0.11205E+08
0.11110E+08
0.11287E+08
0.10900E+08
0.11206E+08
0.11093E+08
0.11208E+08
0.11080E+08
0.11672E+08
0.10668E+08
</weights>
</event>
<event>
      6  10001 -1.11453E+07  8.94427E-01 -1.00000E+00  1.78646E-01
      21    -1     0     0   502   501  0.000000000E+00  0.000000000E+00  5.184900738E-03  5.184900738E-03  0.000000000E+00  0.00000E+00  9.000E+00
       2    -1     0     0   501     0  0.000000000E+00  0.000000000E+00 -3.457940881E+02  3.457940881E+02  0.000000000E+00  0.00000E+00  9.000E+00
      23     2     1     2     0     0 -7.914811425E-02  3.561043624E-01 -3.226229911E+02  3.226304889E+02  2.169075139E+00  0.00000E+00  9.000E+00
      11     1     3     3     0     0  5.231184520E-01  1.013720290E+00 -2.394584361E+02  2.394611532E+02  5.110000000E-04  0.00000E+00  9.000E+00
     -11     1     3     3     0     0 -6.022665663E-01 -6.576159281E-01 -8.316455505E+01  8.316933570E+01  5.110000000E-04  0.00000E+00  9.000E+00
       2     1     1     2   502     0  7.914811425E-02 -3.561043624E-01 -2.316591212E+01  2.316878415E+01  0.000000000E+00  0.00000E+00  9.000E+00
#rwgt            1          17  -19220295.858227637                3    15487827           0
<weights>
-.11145E+08
-.11664E+08
-.10486E+08
-.14176E+08
-.84019E+07
-.91702E+07
-.13910E+08
-.11128E+08
-.11162E+08
-.11168E+08
-.11158E+08
-.11029E+08
-.11281E+08
-.11161E+08
-.11159E+08
-.11330E+08
-.10867E+08
-.11384E+08
-.10782E+08
-.10735E+08
-.11411E+08
-.11105E+08
-.11163E+08
-.11101E+08
-.11144E+08
-.11249E+08
-.11075E+08
-.10858E+08
-.11433E+08
-.11081E+08
-.11170E+08
-.11024E+08
-.11262E+08
-.11397E+08
-.10827E+08
-.11117E+08
-.11170E+08
-.11161E+08
-.11133E+08
-.11218E+08
-.11079E+08
-.11145E+08
-.11145E+08
-.11126E+08
-.11164E+08
</weights>
</event>
<event>
      6  10001 -1.11453E+07  8.94427E-01 -1.00000E+00  3.01070E-01
      -4    -1     0     0     0   502  0.000000000E+00  0.000000000E+00  1.977625242E+02  1.977625242E+02  0.000000000E+00  0.00000E+00  9.000E+00
      21    -1     0     0   502   501  0.000000000E+00  0.000000000E+00 -1.857416267E-02  1.857416267E-02  0.000000000E+00  0.00000E+00  9.000E+00
      23     2     1     2     0     0  6.970639805E-01  2.959191349E-01  1.872156420E+02  1.872255909E+02  1.775341057E+00  0.00000E+00  9.000E+00
      11     1     3     3     0     0 -6.283387469E-03  6.040196687E-01  1.535694383E+02  1.535706263E+02  5.110000000E-04  0.00000E+00  9.000E+00
     -11     1     3     3     0     0  7.033473679E-01 -3.081005338E-01  3.364620369E+01  3.365496466E+01  5.110000000E-04  0.00000E+00  9.000E+00
      -4     1     1     2     0   501 -6.970639805E-01 -2.959191349E-01  1.052830811E+01  1.055550748E+01  0.000000000E+00  0.00000E+00  9.000E+00
#rwgt            1           3  -1113409.8105552248                3    15488874           0
<weights>
-.11145E+08
-.15215E+08
-.62487E+07
-.18501E+08
-.50069E+07
-.91664E+07
-.13909E+08
-.11172E+08
-.11119E+08
-.10832E+08
-.10823E+08
-.10968E+08
-.11009E+08
-.10848E+08
-.10832E+08
-.11222E+08
-.11212E+08
-.11453E+08
-.11495E+08
-.11484E+08
-.11430E+08
-.11492E+08
-.11512E+08
-.11402E+08
-.11325E+08
-.11284E+08
-.11337E+08
-.11429E+08
-.11365E+08
-.11470E+08
-.11504E+08
-.11183E+08
-.11214E+08
-.11139E+08
-.11176E+08
-.11207E+08
-.11102E+08
-.11133E+08
-.11085E+08
-.11167E+08
-.11127E+08
-.11183E+08
-.11106E+08
-.11496E+08
-.10823E+08
</weights>
</event>
<event>
      6  10001  1.11453E+07  8.94427E-01 -1.00000E+00  6.04794E-01
      -2    -1     0     0     0   502  0.000000000E+00  0.000000000E+00  1.276666360E+00  1.276666360E+00  0.000000000E+00  0.00000E+00  9.000E+00
       2    -1     0     0   501     0  0.000000000E+00  0.000000000E+00 -4.028536724E-01  4.028536724E-01  0.000000000E+00  0.00000E+00  9.000E+00
      23     2     1     2     0     0 -9.833524501E-02 -2.500844773E-01  8.324234009E-01  1.407628254E+00  1.102849272E+00  0.00000E+00  9.000E+00
      11     1     3     3     0     0 -5.525619978E-01  6.828338036E-02  5.599113369E-01  7.896127835E-01  5.110000000E-04  0.00000E+00  9.000E+00
     -11     1     3     3     0     0  4.542267528E-01 -3.183678577E-01  2.725120640E-01  6.180154706E-01  5.110000000E-04  0.00000E+00  9.000E+00
      21     1     1     2   501   502  9.833524501E-02  2.500844773E-01  4.138928694E-02  2.718917786E-01  5.626606743E-09  0.00000E+00  9.000E+00
#rwgt            1           8   178833.15273133895                3    15493097           0
<weights>
0.11119E+08
0.16867E+08
0.71438E+07
0.60560E+07
0.13250E+08
0.18083E+08
0.70262E+06
0.10376E+08
0.12003E+08
0.10685E+08
0.10529E+08
0.10959E+08
0.10734E+08
0.10652E+08
0.10559E+08
0.11053E+08
0.11567E+08
0.11702E+08
0.11678E+08
0.11637E+08
0.11679E+08
0.11783E+08
0.11697E+08
0.11799E+08
0.11177E+08
0.11477E+08
0.11269E+08
0.11784E+08
0.11359E+08
0.11815E+08
0.11735E+08
0.11138E+08
0.11301E+08
0.11096E+08
0.11215E+08
0.10514E+08
0.11815E+08
0.11459E+08
0.10715E+08
0.11203E+08
0.11038E+08
0.11297E+08
0.10930E+08
0.11704E+08
0.10596E+08
</weights>
</event>
<event>
      6  10001  1.11453E+07  8.94427E-01 -1.00000E+00  6.01282E-01
       1    -1     0     0   501     0  0.000000000E+00  0.000000000E+00  1.182041846E-01  1.182041846E-01  0.000000000E+00  0.00000E+00  9.000E+00
      21    -1     0     0   502   501  0.000000000E+00  0.000000000E+00 -3.483604100E+01  3.483604100E+01  0.000000000E+00  0.00000E+00  9.000E+00
      23     2     1     2     0     0  1.179094046E-01  2.978395349E-01 -2.961854033E+00  3.196646826E+00  1.159034340E+00  0.00000E+00  9.000E+00
      11     1     3     3     0     0  3.960661384E-01  9.662659498E-02 -2.776945522E+00  2.806711916E+00  5.110000000E-04  0.00000E+00  9.000E+00
     -11     1     3     3     0     0 -2.781567338E-01  2.012129399E-01 -1.849085110E-01  3.899349103E-01  5.110000000E-04  0.00000E+00  9.000E+00
       1     1     1     2   502     0 -1.179094046E-01 -2.978395349E-01 -3.175598278E+01  3.175759836E+01  0.000000000E+00  0.00000E+00  9.000E+00
#rwgt            1          22   671544.52788236027                3    15493830           0
<weights>
0.11145E+08
0.12250E+08
0.99132E+07
0.12622E+08
0.94756E+07
0.10727E+08
0.11520E+08
0.11283E+08
0.11007E+08
0.10715E+08
0.10814E+08
0.10897E+08
0.11018E+08
0.10778E+08
0.10807E+08
0.11229E+08
0.11191E+08
0.11464E+08
0.11527E+08
0.11521E+08
0.11442E+08
0.11480E+08
0.11585E+08
0.11234E+08
0.11522E+08
0.11437E+08
0.11007E+08
0.11433E+08
0.11293E+08
0.11406E+08
0.11504E+08
0.11111E+08
0.11288E+08
0.11168E+08
0.11134E+08
0.11354E+08
0.10962E+08
0.10758E+08
0.11430E+08
0.11129E+08
0.11161E+08
0.11166E+08
0.11124E+08
0.11544E+08
0.10768E+08
</weights>
</event>
<event>
      7  10001  1.11453E+07  8.94427E-01 -1.00000E+00  6.07649E-01
      21    -1     0     0   511   502  0.000000000E+00  0.000000000E+00  1.401086116E-01  1.401086116E-01  0.000000000E+00  0.00000E+00  9.000E+00
       2    -1     0     0   501     0  0.000000000E+00  0.000000000E+00 -2.826700842E+02  2.826700842E+02  0.000000000E+00  0.00000E+00  9.000E+00
      23     2     1     2     0     0  2.218302786E-01  1.553499870E-01 -2.810185658E+02  2.810286823E+02  2.369096035E+00  0.00000E+00  9.000E+00
      11     1     3     3     0     0  1.020854276E+00 -3.469994946E-01 -2.215823696E+02  2.215849928E+02  5.110000000E-04  0.00000E+00  9.000E+00
     -11     1     3     3     0     0 -7.990239975E-01  5.023494816E-01 -5.943619626E+01  5.944368949E+01  5.110000000E-04  0.00000E+00  9.000E+00
      21     1     1     2   501   502 -3.261034969E-01 -4.406201522E-01 -5.635635685E-01  7.861892298E-01  2.413114122E-07  0.00000E+00  9.000E+00
       2     1     1     2   511     0  1.042732184E-01  2.852701652E-01 -9.478462179E-01  9.953212667E-01  0.000000000E+00  0.00000E+00  9.000E+00
#rwgt            2         190   39100017.410283484                3    15503728           0
<weights>
0.11145E+08
0.10664E+08
0.11518E+08
0.12960E+08
0.92288E+07
0.91702E+07
0.13910E+08
0.11127E+08
0.11162E+08
0.11171E+08
0.11162E+08
0.11057E+08
0.11251E+08
0.11165E+08
0.11163E+08
0.11333E+08
0.10860E+08
0.11326E+08
0.10848E+08
0.10812E+08
0.11345E+08
0.11104E+08
0.11154E+08
0.11134E+08
0.11107E+08
0.11198E+08
0.11105E+08
0.10927E+08
0.11342E+08
0.11090E+08
0.11157E+08
0.11035E+08
0.11250E+08
0.11328E+08
0.10909E+08
0.11127E+08
0.11159E+08
0.11167E+08
0.11124E+08
0.11195E+08
0.11098E+08
0.11153E+08
0.11137E+08
0.11122E+08
0.11167E+08
</weights>
</event>
<event>
      6  10001 -1.11453E+07  8.94427E-01 -1.00000E+00  3.54069E-01
       2    -1     0     0   501     0  0.000000000E+00  0.000000000E+00  1.358339970E+02  1.358339970E+02  0.000000000E+00  0.00000E+00  9.000E+00
      21    -1     0     0   502   501  0.000000000E+00  0.000000000E+00 -2.501167618E-02  2.501167618E-02  0.000000000E+00  0.00000E+00  9.000E+00
      23     2     1     2     0     0 -5.175224810E-02  3.083214494E-01  1.345423820E+02  1.345543921E+02  1.770350427E+00  0.00000E+00  9.000E+00
      11     1     3     3     0     0  4.240178718E-01  1.517152079E-01  1.233357572E+02  1.233365794E+02  5.110000000E-04  0.00000E+00  9.000E+00
     -11     1     3     3     0     0 -4.757701199E-01  1.566062416E-01  1.120662483E+01  1.121781276E+01  5.110000000E-04  0.00000E+00  9.000E+00
       2     1     1     2   502     0  5.175224810E-02 -3.083214494E-01  1.266603306E+00  1.304616552E+00  0.000000000E+00  0.00000E+00  9.000E+00
#rwgt            1          24  -65322179.326437794                3    15504055           0
<weights>
-.11145E+08
-.12155E+08
-.99302E+07
-.14776E+08
-.79567E+07
-.91679E+07
-.13910E+08
-.11170E+08
-.11122E+08
-.10821E+08
-.10809E+08
-.10961E+08
-.11004E+08
-.10838E+08
-.10820E+08
-.11226E+08
-.11213E+08
-.11466E+08
-.11509E+08
-.11497E+08
-.11442E+08
-.11506E+08
-.11525E+08
-.11419E+08
-.11328E+08
-.11288E+08
-.11364E+08
-.11439E+08
-.11376E+08
-.11485E+08
-.11519E+08
-.11185E+08
-.11217E+08
-.11137E+08
-.11179E+08
-.11207E+08
-.11103E+08
-.11138E+08
-.11078E+08
-.11168E+08
-.11126E+08
-.11186E+08
-.11103E+08
-.11510E+08
-.10810E+08
</weights>
</event>
<event>
      6  10001 -1.11453E+07  8.94427E-01 -1.00000E+00  2.16990E-01
      21    -1     0     0   502   501  0.000000000E+00  0.000000000E+00  1.431313396E-02  1.431313396E-02  0.000000000E+00  0.00000E+00  9.000E+00
       1    -1     0     0   501     0  0.000000000E+00  0.000000000E+00 -4.368472680E+01  4.368472680E+01  0.000000000E+00  0.00000E+00  9.000E+00
      23     2     1     2     0     0 -2.969322692E-02 -2.789638435E-01 -3.298831875E+01  3.301326180E+01  1.252029660E+00  0.00000E+00  9.000E+00
      11     1     3     3     0     0 -5.448364596E-02 -2.255353818E-01 -1.069069117E+00  1.093957821E+00  5.110000000E-04  0.00000E+00  9.000E+00
     -11     1     3     3     0     0  2.479041904E-02 -5.342846169E-02 -3.191924964E+01  3.191930398E+01  5.110000000E-04  0.00000E+00  9.000E+00
       1     1     1     2   502     0  2.969322692E-02  2.789638435E-01 -1.068209491E+01  1.068577813E+01  0.000000000E+00  0.00000E+00  9.000E+00
#rwgt            1          16  -1007536.1779366367                3    15506723           0
<weights>
-.11145E+08
-.12294E+08
-.98684E+07
-.14942E+08
-.79071E+07
-.91702E+07
-.13910E+08
-.11215E+08
-.11075E+08
-.11056E+08
-.11071E+08
-.11003E+08
-.11165E+08
-.11081E+08
-.11090E+08
-.10867E+08
-.11424E+08
-.11128E+08
-.11203E+08
-.11178E+08
-.11122E+08
-.11201E+08
-.11193E+08
-.11198E+08
-.11156E+08
-.11234E+08
-.11075E+08
-.11141E+08
-.11091E+08
-.11165E+08
-.11192E+08
-.11100E+08
-.11204E+08
-.11094E+08
-.11138E+08
-.11066E+08
-.11221E+08
-.10975E+08
-.11321E+08
-.11129E+08
-.11151E+08
-.11221E+08
-.11064E+08
-.11214E+08
-.11074E+08
</weights>
</event>
<event>
      6  10001 -1.11453E+07  8.94427E-01 -1.00000E+00  6.53818E-01
      -2    -1     0     0     0   502  0.000000000E+00  0.000000000E+00  3.799840541E+02  3.799840541E+02  0.000000000E+00  0.00000E+00  9.000E+00
      21    -1     0     0   502   501  0.000000000E+00  0.000000000E+00 -1.393655324E-02  1.393655324E-02  0.000000000E+00  0.00000E+00  9.000E+00
      23     2     1     2     0     0  3.930273847E-01 -3.303725051E-01  3.600105062E+02  3.600317767E+02  3.879691575E+00  0.00000E+00  9.000E+00
      11     1     3     3     0     0 -1.708177167E+00 -5.379724221E-01  1.788635697E+02  1.788725352E+02  5.110000000E-04  0.00000E+00  9.000E+00
     -11     1     3     3     0     0  2.101204551E+00  2.075999170E-01  1.811469366E+02  1.811592415E+02  5.110000000E-04  0.00000E+00  9.000E+00
      -2     1     1     2     0   501 -3.930273847E-01  3.303725051E-01  1.995961136E+01  1.996621402E+01  0.000000000E+00  0.00000E+00  9.000E+00
#rwgt            1           7  -1697156.7938397895                3    15507521           0
<weights>
-.11145E+08
-.11843E+08
-.10202E+08
-.14403E+08
-.81744E+07
-.91644E+07
-.13909E+08
-.11171E+08
-.11121E+08
-.10823E+08
-.10813E+08
-.10962E+08
-.11006E+08
-.10841E+08
-.10824E+08
-.11226E+08
-.11211E+08
-.11462E+08
-.11504E+08
-.11492E+08
-.11439E+08
-.11501E+08
-.11521E+08
-.11412E+08
-.11328E+08
-.11287E+08
-.11356E+08
-.11435E+08
-.11372E+08
-.11479E+08
-.11514E+08
-.11184E+08
-.11217E+08
-.11138E+08
-.11178E+08
-.11208E+08
-.11102E+08
-.11132E+08
-.11084E+08
-.11166E+08
-.11128E+08
-.11185E+08
-.11104E+08
-.11506E+08
-.10814E+08
</weights>
</event>
<event>
      7  10001  1.11453E+07  1.09256E+00 -1.00000E+00  5.29474E-01
       3    -1     0     0   502     0  0.000000000E+00  0.000000000E+00  2.387767303E+01  2.387767303E+01  0.000000000E+00  0.00000E+00  9.000E+00
      -2    -1     0     0     0   502  0.000000000E+00  0.000000000E+00 -5.849739991E+01  5.849739991E+01  0.000000000E+00  0.00000E+00  9.000E+00
      23     2     1     2     0     0 -7.181742271E-01 -1.977790961E-01 -5.543258208E+01  5.544666722E+01  1.003423323E+00  0.00000E+00  9.000E+00
      11     1     3     3     0     0 -3.432722283E-01  2.194937273E-01 -7.687580082E+00  7.698370028E+00  5.110000000E-04  0.00000E+00  9.000E+00
     -11     1     3     3     0     0 -3.749019988E-01 -4.172728233E-01 -4.774500200E+01  4.774829719E+01  5.110000000E-04  0.00000E+00  9.000E+00
      -2     1     1     2     0   501 -2.069082630E-01  7.790721823E-01 -2.991903184E+00  3.098588252E+00  0.000000000E+00  0.00000E+00  9.000E+00
       3     1     1     2   501     0  9.250824901E-01 -5.812930862E-01  2.380475838E+01  2.382981747E+01  0.000000000E+00  0.00000E+00  9.000E+00
#rwgt            1          14   1355642.2697402500                3    15508312           0
<weights>
0.11145E+08
0.15986E+08
0.62610E+07
0.13248E+08
0.88611E+07
0.13259E+08
0.76336E+07
0.11308E+08
0.10985E+08
0.10830E+08
0.10952E+08
0.11009E+08
0.10926E+08
0.10915E+08
0.10936E+08
0.11028E+08
0.11365E+08
0.11393E+08
0.11288E+08
0.11242E+08
0.11405E+08
0.11335E+08
0.11401E+08
0.11269E+08
0.11316E+08
0.11409E+08
0.11000E+08
0.11333E+08
0.11050E+08
0.11277E+08
0.11345E+08
0.11031E+08
0.11322E+08
0.11363E+08
0.10940E+08
0.10861E+08
0.11417E+08
0.10779E+08
0.11501E+08
0.11132E+08
0.11135E+08
0.11375E+08
0.10899E+08
0.11390E+08
0.10906E+08
</weights>
</event>
<event>
      6  10001 -1.11453E+07  8.94427E-01 -1.00000E+00  6.07646E-01
      21    -1     0     0   502   501  0.000000000E+00  0.000000000E+00  8.357094918E-02  8.357094918E-02  0.000000000E+00  0.00000E+00  9.000E+00
      -2    -1     0     0     0   502  0.000000000E+00  0.000000000E+00 -1.120158578E+01  1.120158578E+01  0.000000000E+00  0.00000E+00  9.000E+00
      23     2     1     2     0     0  3.876384849E-01 -3.063015135E-01 -8.349442503E+00  8.472848612E+00  1.353473043E+00  0.00000E+00  9.000E+00
      11     1     3     3     0     0 -2.084870835E-01 -6.204365372E-02 -6.678135701E+00  6.681677407E+00  5.110000000E-04  0.00000E+00  9.000E+00
     -11     1     3     3     0     0  5.961255685E-01 -2.442578598E-01 -1.671306802E+00  1.791171205E+00  5.110000000E-04  0.00000E+00  9.000E+00
      -2     1     1     2     0   501 -3.876384849E-01  3.063015135E-01 -2.768572332E+00  2.812308122E+00  0.000000000E+00  0.00000E+00  9.000E+00
#rwgt            1          14  -526904.65627295605                3    15527062           0
<weights>
-.11145E+08
-.64832E+07
-.14716E+08
-.17798E+08
-.62410E+07
-.29194E+07
-.23505E+08
-.11301E+08
-.10995E+08
-.11085E+08
-.11187E+08
-.11032E+08
-.11274E+08
-.11155E+08
-.11185E+08
-.11248E+08
-.10929E+08
-.11079E+08
-.11100E+08
-.11110E+08
-.11076E+08
-.11071E+08
-.11103E+08
-.10991E+08
-.11248E+08
-.11064E+08
-.11151E+08
-.11023E+08
-.11149E+08
-.11016E+08
-.11092E+08
-.11134E+08
-.11139E+08
-.11133E+08
-.11142E+08
-.11528E+08
-.10761E+08
-.10820E+08
-.11523E+08
-.11055E+08
-.11233E+08
-.11067E+08
-.11229E+08
-.11129E+08
-.11143E+08
</weights>
</event>
<event>
      7  10001  1.11453E+07  3.34257E+00 -1.00000E+00  2.79392E-01
      21    -1     0     0   501   511  0.000000000E+00  0.000000000E+00  4.952913206E+02  4.952913206E+02  0.000000000E+00  0.00000E+00  9.000E+00
      -2    -1     0     0     0   502  0.000000000E+00  0.000000000E+00 -9.631083828E-02  9.631083828E-02  0.000000000E+00  0.00000E+00  9.000E+00
      23     2     1     2     0     0  2.286324511E+00  3.458734223E+00  6.758365288E+01  6.775455495E+01  2.437100446E+00  0.00000E+00  9.000E+00
      11     1     3     3     0     0  1.355426439E+00  3.064859559E+00  3.624245787E+01  3.639706441E+01  5.110000000E-04  0.00000E+00  9.000E+00
     -11     1     3     3     0     0  9.308980725E-01  3.938746640E-01  3.134119501E+01  3.135749055E+01  5.110000000E-04  0.00000E+00  9.000E+00
      21     1     1     2   501   502 -6.112707008E-01 -5.661644926E-01  1.362366589E+02  1.362392066E+02  3.303624740E-06  0.00000E+00  9.000E+00
      -2     1     1     2     0   511 -1.675053811E+00 -2.892569730E+00  2.913746980E+02  2.913938698E+02  0.000000000E+00  0.00000E+00  9.000E+00
#rwgt            1          23   530979.59389926086                3    15540628           0
<weights>
0.11145E+08
0.12125E+08
0.10167E+08
0.11831E+08
0.10084E+08
0.11149E+08
0.10872E+08
0.10919E+08
0.11454E+08
0.10800E+08
0.10752E+08
0.10969E+08
0.10947E+08
0.10805E+08
0.10767E+08
0.11189E+08
0.11303E+08
0.11527E+08
0.11546E+08
0.11524E+08
0.11505E+08
0.11574E+08
0.11565E+08
0.11531E+08
0.11277E+08
0.11339E+08
0.11350E+08
0.11520E+08
0.11377E+08
0.11565E+08
0.11570E+08
0.11172E+08
0.11250E+08
0.11135E+08
0.11191E+08
0.11025E+08
0.11309E+08
0.11218E+08
0.11004E+08
0.11181E+08
0.11113E+08
0.11219E+08
0.11068E+08
0.11557E+08
0.10770E+08
</weights>
</event>
<event>
      7  10001  1.11453E+07  1.62655E+01 -1.00000E+00  1.73892E-01
      21    -1     0     0   502   511  0.000000000E+00  0.000000000E+00  3.410046777E+01  3.410046777E+01  0.000000000E+00  0.00000E+00  9.000E+00
       2    -1     0     0   501     0  0.000000000E+00  0.000000000E+00 -1.687404283E+01  1.687404283E+01  0.000000000E+00  0.00000E+00  9.000E+00
      23     2     1     2     0     0 -1.598148576E+00  1.471841673E+00 -8.774408013E+00  9.273672760E+00  2.071321727E+00  0.00000E+00  9.000E+00
      11     1     3     3     0     0 -6.976603208E-01 -2.137526499E-01 -4.895179082E+00  4.949262432E+00  5.110000000E-04  0.00000E+00  9.000E+00
     -11     1     3     3     0     0 -9.004882556E-01  1.685594323E+00 -3.879228931E+00  4.324410328E+00  5.110000000E-04  0.00000E+00  9.000E+00
       2     1     1     2   502     0  1.218853137E+01  1.087358272E+01  1.331342094E+01  2.107231063E+01  0.000000000E+00  0.00000E+00  9.000E+00
      21     1     1     2   501   511 -1.059038279E+01 -1.234542439E+01  1.268741202E+01  2.062852721E+01  3.769728732E-07  0.00000E+00  9.000E+00
#rwgt            1          17   2536822.8241320495                3    15542667           0
<weights>
0.11145E+08
0.11135E+08
0.11172E+08
0.12054E+08
0.10082E+08
0.10246E+08
0.12259E+08
0.11169E+08
0.11117E+08
0.10912E+08
0.10930E+08
0.11049E+08
0.10998E+08
0.10935E+08
0.10935E+08
0.11107E+08
0.11311E+08
0.11293E+08
0.11456E+08
0.11457E+08
0.11277E+08
0.11373E+08
0.11392E+08
0.11281E+08
0.11298E+08
0.11304E+08
0.11071E+08
0.11441E+08
0.11108E+08
0.11356E+08
0.11359E+08
0.11150E+08
0.11209E+08
0.11106E+08
0.11220E+08
0.11084E+08
0.11220E+08
0.11021E+08
0.11192E+08
0.11118E+08
0.11166E+08
0.11213E+08
0.11073E+08
0.11383E+08
0.10923E+08
</weights>
</event>
<event>
      7  10001  1.11453E+07  2.75060E+00 -1.00000E+00  3.03544E-01
      21    -1     0     0   502   501  0.000000000E+00  0.000000000E+00  1.106925149E-01  1.106925149E-01  0.000000000E+00  0.00000E+00  9.000E+00
       2    -1     0     0   501     0  0.000000000E+00  0.000000000E+00 -2.045156640E+02  2.045156640E+02  0.000000000E+00  0.00000E+00  9.000E+00
      23     2     1     2     0     0 -3.639099806E-01 -1.087983940E+00 -1.541019595E+02  1.541140688E+02  1.554397759E+00  0.00000E+00  9.000E+00
      11     1     3     3     0     0 -3.835245373E-01  2.300993459E-01 -1.737768107E+01  1.738343569E+01  5.110000000E-04  0.00000E+00  9.000E+00
     -11     1     3     3     0     0  1.961455675E-02 -1.318083286E+00 -1.367242784E+02  1.367306331E+02  5.110000000E-04  0.00000E+00  9.000E+00
       2     1     1     2   511     0  1.123239987E+00 -1.380077971E-01 -3.328138897E+00  3.515284162E+00  0.000000000E+00  0.00000E+00  9.000E+00
      21     1     1     2   502   511 -7.593300064E-01  1.225991737E+00 -4.697487309E+01  4.699700352E+01  9.536743164E-07  0.00000E+00  9.000E+00
#rwgt            1          17   27643965.403507780                3    15546548           0
<weights>
0.11145E+08
0.12525E+08
0.95301E+07
0.13106E+08
0.91053E+07
0.10642E+08
0.11651E+08
0.11135E+08
0.11155E+08
0.11161E+08
0.11166E+08
0.11123E+08
0.11168E+08
0.11165E+08
0.11164E+08
0.11305E+08
0.10891E+08
0.11190E+08
0.11024E+08
0.11014E+08
0.11193E+08
0.11111E+08
0.11140E+08
0.11210E+08
0.11035E+08
0.11093E+08
0.11165E+08
0.11098E+08
0.11125E+08
0.11117E+08
0.11134E+08
0.11071E+08
0.11211E+08
0.11172E+08
0.11098E+08
0.11148E+08
0.11138E+08
0.11165E+08
0.11125E+08
0.11144E+08
0.11142E+08
0.11178E+08
0.11110E+08
0.11123E+08
0.11165E+08
</weights>
</event>
<event>
      6  10001 -1.11453E+07  8.94427E-01 -1.00000E+00  1.83536E-01
      -3    -1     0     0     0   502  0.000000000E+00  0.000000000E+00  1.109695503E+02  1.109695503E+02  0.000000000E+00  0.00000E+00  9.000E+00
      21    -1     0     0   502   501  0.000000000E+00  0.000000000E+00 -6.106096668E-03  6.106096668E-03  0.000000000E+00  0.00000E+00  9.000E+00
      23     2     1     2     0     0  6.928720713E-02  4.005530380E-01  6.053996497E+01  6.055053863E+01  1.055995626E+00  0.00000E+00  9.000E+00
      11     1     3     3     0     0 -4.317032515E-02 -3.586986330E-01  1.747323582E+01  1.747697052E+01  5.110000000E-04  0.00000E+00  9.000E+00
     -11     1     3     3     0     0  1.124575323E-01  7.592516710E-01  4.306672915E+01  4.307356811E+01  5.110000000E-04  0.00000E+00  9.000E+00
      -3     1     1     2     0   501 -6.928720713E-02 -4.005530380E-01  5.042347920E+01  5.042511773E+01  0.000000000E+00  0.00000E+00  9.000E+00
#rwgt            1           5  -606569.80750293517                3    15559368           0
<weights>
-.11145E+08
-.12383E+08
-.98521E+07
-.15056E+08
-.78942E+07
-.91664E+07
-.13909E+08
-.11168E+08
-.11123E+08
-.10941E+08
-.10943E+08
-.11009E+08
-.11081E+08
-.10967E+08
-.10954E+08
-.11211E+08
-.11149E+08
-.11337E+08
-.11336E+08
-.11327E+08
-.11323E+08
-.11355E+08
-.11356E+08
-.11296E+08
-.11256E+08
-.11221E+08
-.11261E+08
-.11304E+08
-.11275E+08
-.11333E+08
-.11361E+08
-.11162E+08
-.11193E+08
-.11137E+08
-.11167E+08
-.11201E+08
-.11101E+08
-.11090E+08
-.11164E+08
-.11132E+08
-.11158E+08
-.11167E+08
-.11122E+08
-.11362E+08
-.10941E+08
</weights>
</event>
<event>
      7  10001 -1.11453E+07  1.51297E+00 -1.00000E+00  4.15022E-01
       4    -1     0     0   501     0  0.000000000E+00  0.000000000E+00  1.806492486E+02  1.806492486E+02  0.000000000E+00  0.00000E+00  9.000E+00
      21    -1     0     0   511   501  0.000000000E+00  0.000000000E+00 -7.245764453E+00  7.245764453E+00  0.000000000E+00  0.00000E+00  9.000E+00
      23     2     1     2     0     0  1.186697265E-01 -1.253959475E+00  6.994907401E+01  6.997227645E+01  1.288417410E+00  0.00000E+00  9.000E+00
      11     1     3     3     0     0  1.414288924E-01 -1.518081243E+00  5.637104904E+01  5.639166377E+01  5.110000000E-04  0.00000E+00  9.000E+00
     -11     1     3     3     0     0 -2.275916584E-02  2.641217685E-01  1.357802497E+01  1.358061267E+01  5.110000000E-04  0.00000E+00  9.000E+00
       4     1     1     2   502     0  4.709625022E-01  2.647307022E+00  1.105929461E+02  1.106256289E+02  0.000000000E+00  0.00000E+00  9.000E+00
      21     1     1     2   511   502 -5.896322288E-01 -1.393347547E+00 -7.138536024E+00  7.297107654E+00  3.862822472E-07  0.00000E+00  9.000E+00
#rwgt            1          28  -135241.35378197263                3    15560120           0
<weights>
-.11077E+08
-.72147E+07
-.14774E+08
-.18273E+08
-.62886E+07
-.29803E+07
-.23241E+08
-.11213E+08
-.10920E+08
-.11594E+08
-.11787E+08
-.11246E+08
-.11495E+08
-.11725E+08
-.11778E+08
-.11084E+08
-.10558E+08
-.10415E+08
-.10069E+08
-.10105E+08
-.10457E+08
-.10247E+08
-.10193E+08
-.10175E+08
-.10851E+08
-.10701E+08
-.99544E+07
-.10275E+08
-.10522E+08
-.10187E+08
-.10230E+08
-.10891E+08
-.11008E+08
-.11102E+08
-.10981E+08
-.11184E+08
-.10932E+08
-.10421E+08
-.11941E+08
-.10806E+08
-.11315E+08
-.10988E+08
-.11171E+08
-.10330E+08
-.11724E+08
</weights>
</event>
<event>
      7  10001  1.11453E+07  2.09126E+00 -1.00000E+00  3.45875E-01
      21    -1     0     0   502   501  0.000000000E+00  0.000000000E+00  1.076457861E+01  1.076457861E+01  0.000000000E+00  0.00000E+00  9.000E+00
       4    -1     0     0   501     0  0.000000000E+00  0.000000000E+00 -3.349396790E-01  3.349396790E-01  0.000000000E+00  0.00000E+00  9.000E+00
      23     2     1     2     0     0  5.359501649E-01 -3.983408187E-01  2.808607528E+00  3.377098934E+00  1.752313607E+00  0.00000E+00  9.000E+00
      11     1     3     3     0     0  1.090469884E+00 -9.921522564E-02  1.083074346E+00  1.540135880E+00  5.110000000E-04  0.00000E+00  9.000E+00
     -11     1     3     3     0     0 -5.545197189E-01 -2.991255931E-01  1.725533182E+00  1.836963054E+00  5.110000000E-04  0.00000E+00  9.000E+00
       4     1     1     2   511     0  3.037121720E-01  4.406957421E-02  1.282480710E+00  1.318688736E+00  0.000000000E+00  0.00000E+00  9.000E+00
      21     1     1     2   502   511 -8.396623369E-01  3.542712445E-01  6.338550689E+00  6.403730616E+00  1.192092896E-07  0.00000E+00  9.000E+00
#rwgt            1          19   724124.17793372087                3    15618013           0
<weights>
0.11145E+08
0.14673E+08
0.77969E+07
0.12344E+08
0.95519E+07
0.12750E+08
0.84139E+07
0.11178E+08
0.11108E+08
0.10697E+08
0.10633E+08
0.10900E+08
0.10924E+08
0.10694E+08
0.10652E+08
0.11255E+08
0.11295E+08
0.11653E+08
0.11670E+08
0.11663E+08
0.11613E+08
0.11715E+08
0.11708E+08
0.11537E+08
0.11409E+08
0.11399E+08
0.11259E+08
0.11640E+08
0.11499E+08
0.11708E+08
0.11725E+08
0.11244E+08
0.11220E+08
0.11116E+08
0.11218E+08
0.11219E+08
0.11095E+08
0.11329E+08
0.10875E+08
0.11222E+08
0.11080E+08
0.11202E+08
0.11086E+08
0.11690E+08
0.10652E+08
</weights>
</event>
<event>
      6  10001 -1.11453E+07  8.94427E-01 -1.00000E+00  4.27773E-01
       4    -1     0     0   501     0  0.000000000E+00  0.000000000E+00  2.528644007E+00  2.528644007E+00  0.000000000E+00  0.00000E+00  9.000E+00
      21    -1     0     0   502   501  0.000000000E+00  0.000000000E+00 -2.559844978E-01  2.559844978E-01  0.000000000E+00  0.00000E+00  9.000E+00
      23     2     1     2     0     0 -1.673318365E-01 -3.008100290E-01  1.827538159E+00  2.221938863E+00  1.215989297E+00  0.00000E+00  9.000E+00
      11     1     3     3     0     0 -3.844389021E-01 -5.063369007E-01  3.731977148E-01  7.371886610E-01  5.110000000E-04  0.00000E+00  9.000E+00
     -11     1     3     3     0     0  2.171070656E-01  2.055268717E-01  1.454340444E+00  1.484750202E+00  5.110000000E-04  0.00000E+00  9.000E+00
       4     1     1     2   502     0  1.673318365E-01  3.008100290E-01  4.451213508E-01  5.626896427E-01  0.000000000E+00  0.00000E+00  9.000E+00
#rwgt            1          28  -1353039.9526747707                3    15627166           0
<weights>
-.11145E+08
-.11319E+08
-.10260E+08
-.17321E+08
-.63697E+07
-.69928E+07
-.17252E+08
-.11210E+08
-.11078E+08
-.11004E+08
-.11051E+08
-.11043E+08
-.11132E+08
-.11034E+08
-.11051E+08
-.11185E+08
-.11117E+08
-.11232E+08
-.11241E+08
-.11242E+08
-.11224E+08
-.11226E+08
-.11276E+08
-.11131E+08
-.11272E+08
-.11206E+08
-.11034E+08
-.11201E+08
-.11179E+08
-.11192E+08
-.11239E+08
-.11118E+08
-.11200E+08
-.11155E+08
-.11135E+08
-.11234E+08
-.11064E+08
-.10932E+08
-.11308E+08
-.11109E+08
-.11178E+08
-.11147E+08
-.11144E+08
-.11261E+08
-.11032E+08
</weights>
</event>
<event>
      6  10001 -1.11453E+07  8.94427E-01 -1.00000E+00  2.79231E-01
      21    -1     0     0   502   501  0.000000000E+00  0.000000000E+00  7.956128462E-03  7.956128462E-03  0.000000000E+00  0.00000E+00  9.000E+00
       2    -1     0     0   501     0  0.000000000E+00  0.000000000E+00 -6.144796774E+02  6.144796774E+02  0.000000000E+00  0.00000E+00  9.000E+00
      23     2     1     2     0     0 -1.383590192E+00  6.798068138E-01 -4.982235204E+02  4.982292116E+02  1.815095344E+00  0.00000E+00  9.000E+00
      11     1     3     3     0     0 -4.339434588E-01  1.118443380E+00 -1.815584723E+02  1.815624358E+02  5.110000000E-04  0.00000E+00  9.000E+00
     -11     1     3     3     0     0 -9.496467329E-01 -4.386365662E-01 -3.166650481E+02  3.166667758E+02  5.110000000E-04  0.00000E+00  9.000E+00
       2     1     1     2   502     0  1.383590192E+00 -6.798068138E-01 -1.162482008E+02  1.162584219E+02  0.000000000E+00  0.00000E+00  9.000E+00
#rwgt            1          17  -41990384.377092645                3    15656482           0
<weights>
-.11145E+08
-.11435E+08
-.10706E+08
-.13898E+08
-.85780E+07
-.91702E+07
-.13910E+08
-.11132E+08
-.11158E+08
-.11163E+08
-.11145E+08
-.10952E+08
-.11362E+08
-.11154E+08
-.11149E+08
-.11187E+08
-.11072E+08
-.11533E+08
-.10611E+08
-.10531E+08
-.11581E+08
-.11112E+08
-.11173E+08
-.10992E+08
-.11265E+08
-.11440E+08
-.10965E+08
-.10657E+08
-.11701E+08
-.11057E+08
-.11201E+08
-.11051E+08
-.11237E+08
-.11620E+08
-.10573E+08
-.11078E+08
-.11207E+08
-.11134E+08
-.11165E+08
-.11285E+08
-.11021E+08
-.11126E+08
-.11165E+08
-.11136E+08
-.11155E+08
</weights>
</event>
<event>
      6  10001 -1.11453E+07  8.94427E-01 -1.00000E+00  3.63782E-01
      21    -1     0     0   502   501  0.000000000E+00  0.000000000E+00  4.717774801E-03  4.717774801E-03  0.000000000E+00  0.00000E+00  9.000E+00
       2    -1     0     0   501     0  0.000000000E+00  0.000000000E+00 -5.222920820E+02  5.222920820E+02  0.000000000E+00  0.00000E+00  9.000E+00
      23     2     1     2     0     0 -7.640062358E-01 -1.144514963E-01 -4.807848361E+02  4.807870823E+02  1.250228381E+00  0.00000E+00  9.000E+00
      11     1     3     3     0     0  5.585893907E-02 -5.420761541E-01 -1.770703374E+02  1.770711760E+02  5.110000000E-04  0.00000E+00  9.000E+00
     -11     1     3     3     0     0 -8.198651748E-01  4.276246578E-01 -3.037144987E+02  3.037159063E+02  5.110000000E-04  0.00000E+00  9.000E+00
       2     1     1     2   502     0  7.640062358E-01  1.144514963E-01 -4.150252811E+01  4.150971747E+01  0.000000000E+00  0.00000E+00  9.000E+00
#rwgt            1          17  -66191080.814535908                3    15657187           0
<weights>
-.11145E+08
-.11670E+08
-.10467E+08
-.14184E+08
-.83870E+07
-.91702E+07
-.13910E+08
-.11130E+08
-.11160E+08
-.11164E+08
-.11149E+08
-.10974E+08
-.11339E+08
-.11156E+08
-.11151E+08
-.11253E+08
-.10979E+08
-.11493E+08
-.10657E+08
-.10587E+08
-.11534E+08
-.11109E+08
-.11172E+08
-.11026E+08
-.11227E+08
-.11376E+08
-.11001E+08
-.10717E+08
-.11622E+08
-.11064E+08
-.11193E+08
-.11033E+08
-.11256E+08
-.11551E+08
-.10650E+08
-.11090E+08
-.11195E+08
-.11143E+08
-.11155E+08
-.11265E+08
-.11039E+08
-.11131E+08
-.11160E+08
-.11134E+08
-.11157E+08
</weights>
</event>
<event>
      7  10001  1.11453E+07  1.50749E+00 -1.00000E+00  4.15963E-01
       1    -1     0     0   501     0  0.000000000E+00  0.000000000E+00  5.963972708E+01  5.963972708E+01  0.000000000E+00  0.00000E+00  9.000E+00
      21    -1     0     0   502   511  0.000000000E+00  0.000000000E+00 -2.262531447E-01  2.262531447E-01  0.000000000E+00  0.00000E+00  9.000E+00
      23     2     1     2     0     0 -1.933196094E+00  1.324818892E+00  2.691405956E+01  2.710087296E+01  2.144369685E+00  0.00000E+00  9.000E+00
      11     1     3     3     0     0  1.103165079E-01  8.800733733E-01  1.303386997E+01  1.306401414E+01  5.110000000E-04  0.00000E+00  9.000E+00
     -11     1     3     3     0     0 -2.043512602E+00  4.447455188E-01  1.388018959E+01  1.403685882E+01  5.110000000E-04  0.00000E+00  9.000E+00
       1     1     1     2   502     0  1.665762831E+00  1.587640697E-01  2.730876167E+01  2.735997873E+01  0.000000000E+00  0.00000E+00  9.000E+00
      21     1     1     2   501   511  2.674332628E-01 -1.483582962E+00  5.190652701E+00  5.405128529E+00  1.332800375E-07  0.00000E+00  9.000E+00
#rwgt            1          22   116155.94241030012                3    15657387           0
<weights>
0.11145E+08
0.14558E+08
0.76114E+07
0.11057E+08
0.10327E+08
0.13614E+08
0.70889E+07
0.11112E+08
0.11182E+08
0.10614E+08
0.10507E+08
0.10872E+08
0.10849E+08
0.10588E+08
0.10531E+08
0.11252E+08
0.11383E+08
0.11756E+08
0.11870E+08
0.11845E+08
0.11713E+08
0.11858E+08
0.11856E+08
0.11778E+08
0.11400E+08
0.11426E+08
0.11706E+08
0.11765E+08
0.11612E+08
0.11864E+08
0.11872E+08
0.11276E+08
0.11232E+08
0.11111E+08
0.11237E+08
0.11165E+08
0.11158E+08
0.11453E+08
0.10701E+08
0.11261E+08
0.11045E+08
0.11225E+08
0.11062E+08
0.11816E+08
0.10542E+08
</weights>
</event>
<event>
      6  10001 -1.11453E+07  8.94427E-01 -1.00000E+00  1.98263E-01
      21    -1     0     0   502   501  0.000000000E+00  0.000000000E+00  2.209064402E-02  2.209064402E-02  0.000000000E+00  0.00000E+00  9.000E+00
       5    -1     0     0   501     0  0.000000000E+00  0.000000000E+00 -3.479377109E+01  3.479377109E+01  0.000000000E+00  0.00000E+00  9.000E+00
      23     2     1     2     0     0 -2.763117489E-01 -1.957552520E-01 -3.164231334E+01  3.166822662E+01  1.235279606E+00  0.00000E+00  9.000E+00
      11     1     3     3     0     0 -1.197635200E-02 -9.599739572E-02 -3.010566255E+01  3.010581799E+01  5.110000000E-04  0.00000E+00  9.000E+00
     -11     1     3     3     0     0 -2.643353969E-01 -9.975785631E-02 -1.536650782E+00  1.562408627E+00  5.110000000E-04  0.00000E+00  9.000E+00
       5     1     1     2   502     0  2.763117489E-01  1.957552520E-01 -3.129367105E+00  3.147635109E+00  0.000000000E+00  0.00000E+00  9.000E+00
#rwgt            1          20  -625898.57675996562                3    15663194           0
<weights>
-.11145E+08
-.13668E+08
-.84943E+07
-.16611E+08
-.68060E+07
-.91702E+07
-.13910E+08
-.11216E+08
-.11075E+08
-.10981E+08
-.11048E+08
-.11001E+08
-.11167E+08
-.11040E+08
-.11053E+08
-.11181E+08
-.11110E+08
-.11228E+08
-.11222E+08
-.11216E+08
-.11226E+08
-.11223E+08
-.11247E+08
-.11145E+08
-.11267E+08
-.11243E+08
-.11079E+08
-.11212E+08
-.11145E+08
-.11175E+08
-.11230E+08
-.11102E+08
-.11216E+08
-.11160E+08
-.11130E+08
-.11275E+08
-.11028E+08
-.10856E+08
-.11439E+08
-.11077E+08
-.11208E+08
-.11128E+08
-.11164E+08
-.11266E+08
-.11021E+08
</weights>
</event>
<event>
      6  10001  1.11453E+07  8.94427E-01 -1.00000E+00  5.91570E-01
       2    -1     0     0   501     0  0.000000000E+00  0.000000000E+00  4.393705232E-02  4.393705232E-02  0.000000000E+00  0.00000E+00  9.000E+00
      -2    -1     0     0     0   502  0.000000000E+00  0.000000000E+00 -4.512389208E+01  4.512389208E+01  0.000000000E+00  0.00000E+00  9.000E+00
      23     2     1     2     0     0 -1.036351824E+00 -6.240388497E-01 -2.439574913E+01  2.444827742E+01  1.049877873E+00  0.00000E+00  9.000E+00
      11     1     3     3     0     0 -5.748921740E-01 -6.646948556E-01 -8.404919779E+00  8.450739436E+00  5.110000000E-04  0.00000E+00  9.000E+00
     -11     1     3     3     0     0 -4.614596497E-01  4.065600595E-02 -1.599082935E+01  1.599753798E+01  5.110000000E-04  0.00000E+00  9.000E+00
      21     1     1     2   501   502  1.036351824E+00  6.240388497E-01 -2.068420590E+01  2.071955171E+01  2.384185791E-07  0.00000E+00  9.000E+00
#rwgt            1          23   106228.70427533388                3    15663952           0
<weights>
0.11145E+08
0.12046E+08
0.10319E+08
0.11026E+08
0.10538E+08
0.11562E+08
0.10238E+08
0.11254E+08
0.11038E+08
0.10919E+08
0.11002E+08
0.11026E+08
0.11011E+08
0.10982E+08
0.10996E+08
0.11059E+08
0.11303E+08
0.11322E+08
0.11242E+08
0.11208E+08
0.11332E+08
0.11279E+08
0.11326E+08
0.11239E+08
0.11261E+08
0.11344E+08
0.11030E+08
0.11285E+08
0.11063E+08
0.11235E+08
0.11285E+08
0.11059E+08
0.11275E+08
0.11298E+08
0.11002E+08
0.10944E+08
0.11340E+08
0.10862E+08
0.11416E+08
0.11117E+08
0.11156E+08
0.11302E+08
0.10977E+08
0.11321E+08
0.10972E+08
</weights>
</event>
<event>
      7  10001  1.11453E+07  2.43132E+00 -1.00000E+00  3.21202E-01
      21    -1     0     0   502   501  0.000000000E+00  0.000000000E+00  3.774525715E-02  3.774525715E-02  0.000000000E+00  0.00000E+00  9.000E+00
      -4    -1     0     0     0   502  0.000000000E+00  0.000000000E+00 -1.547705455E+02  1.547705455E+02  0.000000000E+00  0.00000E+00  9.000E+00
      23     2     1     2     0     0 -5.807130591E-01  8.543811500E-01 -1.354004856E+02  1.354129694E+02  1.521047873E+00  0.00000E+00  9.000E+00
      11     1     3     3     0     0  4.573433639E-01  5.871352235E-01 -4.538237365E+01  4.538847573E+01  5.110000000E-04  0.00000E+00  9.000E+00
     -11     1     3     3     0     0 -1.038056423E+00  2.672459265E-01 -9.001811194E+01  9.002449366E+01  5.110000000E-04  0.00000E+00  9.000E+00
      -4     1     1     2     0   511 -1.183340991E-01 -4.203275276E-01 -1.329753675E+01  1.330470450E+01  0.000000000E+00  0.00000E+00  9.000E+00
      21     1     1     2   511   501  6.990471582E-01 -4.340536224E-01 -6.034777892E+00  6.090616855E+00  2.528810911E-07  0.00000E+00  9.000E+00
#rwgt            2         154   593638.98839915206                3    15666901           0
<weights>
0.11145E+08
0.11443E+08
0.10551E+08
0.13908E+08
0.84544E+07
0.91702E+07
0.13910E+08
0.11051E+08
0.11235E+08
0.11459E+08
0.11359E+08
0.11111E+08
0.11485E+08
0.11453E+08
0.11420E+08
0.11102E+08
0.11029E+08
0.10884E+08
0.10781E+08
0.10781E+08
0.10907E+08
0.10858E+08
0.10752E+08
0.11106E+08
0.10776E+08
0.10889E+08
0.11240E+08
0.10924E+08
0.10946E+08
0.10885E+08
0.10835E+08
0.11163E+08
0.11032E+08
0.11106E+08
0.11176E+08
0.11107E+08
0.11171E+08
0.11212E+08
0.11130E+08
0.10959E+08
0.11321E+08
0.11041E+08
0.11257E+08
0.10838E+08
0.11418E+08
</weights>
</event>
<event>
      6  10001 -1.11453E+07  8.94427E-01 -1.00000E+00  6.60661E-01
       2    -1     0     0   501     0  0.000000000E+00  0.000000000E+00  2.190646823E+02  2.190646823E+02  0.000000000E+00  0.00000E+00  9.000E+00
      -2    -1     0     0     0   502  0.000000000E+00  0.000000000E+00 -4.768725822E-03  4.768725822E-03  0.000000000E+00  0.00000E+00  9.000E+00
      23     2     1     2     0     0  2.373209688E-01 -1.039552431E-01  2.111470996E+02  2.111523965E+02  1.473002145E+00  0.00000E+00  9.000E+00
      11     1     3     3     0     0 -4.548718694E-01 -7.360168579E-02  1.593133508E+02  1.593140172E+02  5.110000000E-04  0.00000E+00  9.000E+00
     -11     1     3     3     0     0  6.921928381E-01 -3.035355734E-02  5.183374878E+01  5.183837927E+01  5.110000000E-04  0.00000E+00  9.000E+00
      21     1     1     2   501   502 -2.373209688E-01  1.039552431E-01  7.912813917E+00  7.917054504E+00  2.665600750E-07  0.00000E+00  9.000E+00
#rwgt            1          23  -239536.14529229933                3    15667019           0
<weights>
-.11145E+08
-.12091E+08
-.99459E+07
-.14707E+08
-.79696E+07
-.91631E+07
-.13909E+08
-.11157E+08
-.11140E+08
-.10816E+08
-.10801E+08
-.10960E+08
-.10998E+08
-.10832E+08
-.10813E+08
-.11225E+08
-.11220E+08
-.11474E+08
-.11516E+08
-.11503E+08
-.11450E+08
-.11516E+08
-.11532E+08
-.11428E+08
-.11327E+08
-.11292E+08
-.11360E+08
-.11448E+08
-.11380E+08
-.11495E+08
-.11527E+08
-.11186E+08
-.11219E+08
-.11137E+08
-.11180E+08
-.11198E+08
-.11114E+08
-.11147E+08
-.11069E+08
-.11170E+08
-.11124E+08
-.11188E+08
-.11100E+08
-.11517E+08
-.10804E+08
</weights>
</event>
<event>
      6  10001 -1.11453E+07  8.94427E-01 -1.00000E+00  2.13748E-01
      -2    -1     0     0     0   502  0.000000000E+00  0.000000000E+00  2.975854604E+02  2.975854604E+02  0.000000000E+00  0.00000E+00  9.000E+00
      21    -1     0     0   502   501  0.000000000E+00  0.000000000E+00 -1.651668837E-03  1.651668837E-03  0.000000000E+00  0.00000E+00  9.000E+00
      23     2     1     2     0     0  1.948787877E-02  3.235134357E-01  2.478343609E+02  2.478366085E+02  1.004517242E+00  0.00000E+00  9.000E+00
      11     1     3     3     0     0 -4.192076618E-01  4.319648983E-01  1.483950233E+02  1.483962441E+02  5.110000000E-04  0.00000E+00  9.000E+00
     -11     1     3     3     0     0  4.386955406E-01 -1.084514626E-01  9.943933755E+01  9.944036438E+01  5.110000000E-04  0.00000E+00  9.000E+00
      -2     1     1     2     0   501 -1.948787877E-02 -3.235134357E-01  4.974944792E+01  4.975050361E+01  0.000000000E+00  0.00000E+00  9.000E+00
#rwgt            1           7  -750386.06207271642                3    15667893           0
<weights>
-.11145E+08
-.10711E+08
-.11401E+08
-.13027E+08
-.91352E+07
-.91641E+07
-.13909E+08
-.11166E+08
-.11127E+08
-.10820E+08
-.10808E+08
-.10961E+08
-.11002E+08
-.10837E+08
-.10819E+08
-.11225E+08
-.11215E+08
-.11466E+08
-.11514E+08
-.11500E+08
-.11442E+08
-.11508E+08
-.11526E+08
-.11428E+08
-.11326E+08
-.11286E+08
-.11395E+08
-.11439E+08
-.11377E+08
-.11486E+08
-.11520E+08
-.11185E+08
-.11218E+08
-.11138E+08
-.11179E+08
-.11204E+08
-.11106E+08
-.11139E+08
-.11078E+08
-.11168E+08
-.11126E+08
-.11187E+08
-.11102E+08
-.11511E+08
-.10809E+08
</weights>
</event>
<event>
      6  10001 -1.11453E+07  8.94427E-01 -1.00000E+00  2.77852E-01
       2    -1     0     0   501     0  0.000000000E+00  0.000000000E+00  3.510935304E+02  3.510935304E+02  0.000000000E+00  0.00000E+00  9.000E+00
      21    -1     0     0   502   501  0.000000000E+00  0.000000000E+00 -1.097361955E-02  1.097361955E-02  0.000000000E+00  0.00000E+00  9.000E+00
      23     2     1     2     0     0 -4.601248156E-01 -3.136845711E-02  3.457024937E+02  3.457047098E+02  1.148708441E+00  0.00000E+00  9.000E+00
      11     1     3     3     0     0 -9.528455161E-02  3.564729037E-01  3.880728201E+01  3.880903618E+01  5.110000000E-04  0.00000E+00  9.000E+00
     -11     1     3     3     0     0 -3.648402640E-01 -3.878413608E-01  3.068952117E+02  3.068956737E+02  5.110000000E-04  0.00000E+00  9.000E+00
       2     1     1     2   502     0  4.601248156E-01  3.136845711E-02  5.380063072E+00  5.399794208E+00  0.000000000E+00  0.00000E+00  9.000E+00
#rwgt            1          24  -55304753.969045065                3    15669541           0
<weights>
-.11146E+08
-.11817E+08
-.10274E+08
-.14395E+08
-.82329E+07
-.91508E+07
-.13909E+08
-.11181E+08
-.11112E+08
-.10839E+08
-.10836E+08
-.10968E+08
-.11020E+08
-.10859E+08
-.10846E+08
-.11225E+08
-.11201E+08
-.11443E+08
-.11478E+08
-.11468E+08
-.11421E+08
-.11477E+08
-.11500E+08
-.11378E+08
-.11330E+08
-.11284E+08
-.11299E+08
-.11414E+08
-.11353E+08
-.11452E+08
-.11489E+08
-.11178E+08
-.11218E+08
-.11141E+08
-.11174E+08
-.11217E+08
-.11094E+08
-.11105E+08
-.11113E+08
-.11161E+08
-.11135E+08
-.11183E+08
-.11109E+08
-.11485E+08
-.10834E+08
</weights>
</event>
<event>
      6  10001 -1.11453E+07  8.94427E-01 -1.00000E+00  6.03935E-01
      21    -1     0     0   502   501  0.000000000E+00  0.000000000E+00  2.122049073E-02  2.122049073E-02  0.000000000E+00  0.00000E+00  9.000E+00
      -3    -1     0     0     0   502  0.000000000E+00  0.000000000E+00 -1.334007198E+02  1.334007198E+02  0.000000000E+00  0.00000E+00  9.000E+00
      23     2     1     2     0     0 -3.592008006E-01  3.612155949E-01 -1.123282136E+02  1.123644919E+02  2.809265330E+00  0.00000E+00  9.000E+00
      11     1     3     3     0     0 -6.029216912E-01 -1.154684373E+00 -5.773125255E+01  5.774594646E+01  5.110000000E-04  0.00000E+00  9.000E+00
     -11     1     3     3     0     0  2.437208906E-01  1.515899968E+00 -5.459696100E+01  5.461854541E+01  5.110000000E-04  0.00000E+00  9.000E+00
      -3     1     1     2     0   501  3.592008006E-01 -3.612155949E-01 -2.105128580E+01  2.105744846E+01  0.000000000E+00  0.00000E+00  9.000E+00
#rwgt            1          13  -507800.82375102653                3    15670533           0
<weights>
-.11145E+08
-.12156E+08
-.99507E+07
-.14774E+08
-.79731E+07
-.91702E+07
-.13910E+08
-.11077E+08
-.11210E+08
-.11208E+08
-.11315E+08
-.11465E+08
-.10862E+08
-.11291E+08
-.11248E+08
-.12728E+08
-.91034E+07
-.11694E+08
-.10115E+08
-.10047E+08
-.11699E+08
-.10989E+08
-.10999E+08
-.97826E+07
-.12436E+08
-.11468E+08
-.10077E+08
-.10027E+08
-.12227E+08
-.10924E+08
-.11078E+08
-.11260E+08
-.10985E+08
-.11209E+08
-.11090E+08
-.11146E+08
-.11138E+08
-.11157E+08
-.11159E+08
-.11084E+08
-.11188E+08
-.11251E+08
-.11031E+08
-.11008E+08
-.11263E+08
</weights>
</event>
<event>
      7  10001  1.11453E+07  2.33521E+00 -1.00000E+00  3.27452E-01
      21    -1     0     0   502   501  0.000000000E+00  0.000000000E+00  6.267002597E-01  6.267002597E-01  0.000000000E+00  0.00000E+00  9.000E+00
      21    -1     0     0   511   502  0.000000000E+00  0.000000000E+00 -1.698910126E+02  1.698910126E+02  0.000000000E+00  0.00000E+00  9.000E+00
      23     2     1     2     0     0  1.860933149E+00 -2.170764799E+00 -1.469529223E+02  1.470012281E+02  2.454465717E+00  0.00000E+00  9.000E+00
      11     1     3     3     0     0  2.180367898E+00 -2.393572205E+00 -1.138958992E+02  1.139419108E+02  5.110000000E-04  0.00000E+00  9.000E+00
     -11     1     3     3     0     0 -3.194347493E-01  2.228074067E-01 -3.305702309E+01  3.305931726E+01  5.110000000E-04  0.00000E+00  9.000E+00
      -4     1     1     2     0   501 -1.327753268E+00  4.444293311E+00 -1.053664338E+01  1.151240746E+01  0.000000000E+00  0.00000E+00  9.000E+00
       4     1     1     2   511     0 -5.331798813E-01 -2.273528512E+00 -1.177474671E+01  1.200407734E+01  0.000000000E+00  0.00000E+00  9.000E+00
#rwgt            1          12   642017.94313383254                3    15673873           0
<weights>
0.11145E+08
0.12122E+08
0.10013E+08
0.12697E+08
0.94341E+07
0.10589E+08
0.11731E+08
0.11063E+08
0.11223E+08
0.11435E+08
0.11350E+08
0.11088E+08
0.11493E+08
0.11449E+08
0.11414E+08
0.11111E+08
0.11011E+08
0.10891E+08
0.10772E+08
0.10772E+08
0.10914E+08
0.10863E+08
0.10746E+08
0.11105E+08
0.10779E+08
0.10885E+08
0.11241E+08
0.10923E+08
0.10943E+08
0.10880E+08
0.10839E+08
0.11155E+08
0.11042E+08
0.11111E+08
0.11170E+08
0.11125E+08
0.11154E+08
0.11152E+08
0.11197E+08
0.10941E+08
0.11336E+08
0.11037E+08
0.11261E+08
0.10849E+08
0.11403E+08
</weights>
</event>
<event>
      6  10001 -1.11453E+07  8.94427E-01 -1.00000E+00  1.71202E-01
      -2    -1     0     0     0   502  0.000000000E+00  0.000000000E+00  1.352412074E-02  1.352412074E-02  0.000000000E+00  0.00000E+00  9.000E+00
       2    -1     0     0   501     0  0.000000000E+00  0.000000000E+00 -1.038099590E+02  1.038099590E+02  0.000000000E+00  0.00000E+00  9.000E+00
      23     2     1     2     0     0  1.900298778E-02  2.609320840E-01 -7.038231409E+01  7.040833813E+01  1.896179008E+00  0.00000E+00  9.000E+00
      11     1     3     3     0     0 -3.801749769E-01 -5.336273306E-01 -5.236202848E+01  5.236612758E+01  5.110000000E-04  0.00000E+00  9.000E+00
     -11     1     3     3     0     0  3.991779647E-01  7.945594146E-01 -1.802028561E+01  1.804221055E+01  5.110000000E-04  0.00000E+00  9.000E+00
      21     1     1     2   501   502 -1.900298778E-02 -2.609320840E-01 -3.341412079E+01  3.341514499E+01  4.768371582E-07  0.00000E+00  9.000E+00
#rwgt            1           8  -1275448.2414103164                3    15701804           0
<weights>
-.11145E+08
-.12597E+08
-.95660E+07
-.15310E+08
-.76648E+07
-.91702E+07
-.13910E+08
-.11150E+08
-.11140E+08
-.11153E+08
-.11167E+08
-.11156E+08
-.11124E+08
-.11168E+08
-.11168E+08
-.11194E+08
-.11038E+08
-.11096E+08
-.11139E+08
-.11143E+08
-.11093E+08
-.11116E+08
-.11116E+08
-.11227E+08
-.11022E+08
-.11068E+08
-.11178E+08
-.11194E+08
-.10999E+08
-.11125E+08
-.11112E+08
-.11120E+08
-.11160E+08
-.11104E+08
-.11192E+08
-.11136E+08
-.11149E+08
-.11130E+08
-.11169E+08
-.11105E+08
-.11176E+08
-.11191E+08
-.11097E+08
-.11122E+08
-.11163E+08
</weights>
</event>
<event>
      6  10001 -1.11453E+07  8.94427E-01 -1.00000E+00  1.45274E-01
       2    -1     0     0   501     0  0.000000000E+00  0.000000000E+00  1.978273940E+01  1.978273940E+01  0.000000000E+00  0.00000E+00  9.000E+00
      21    -1     0     0   502   501  0.000000000E+00  0.000000000E+00 -2.360491440E-02  2.360491440E-02  0.000000000E+00  0.00000E+00  9.000E+00
      23     2     1     2     0     0 -2.139798922E-01  1.416500307E-01  1.617045251E+01  1.620849906E+01  1.079840450E+00  0.00000E+00  9.000E+00
      11     1     3     3     0     0 -4.708366541E-01  4.588675236E-01  7.620113725E+00  7.648423367E+00  5.110000000E-04  0.00000E+00  9.000E+00
     -11     1     3     3     0     0  2.568567619E-01 -3.172174928E-01  8.550338784E+00  8.560075696E+00  5.110000000E-04  0.00000E+00  9.000E+00
       2     1     1     2   502     0  2.139798922E-01 -1.416500307E-01  3.588681982E+00  3.597845257E+00  0.000000000E+00  0.00000E+00  9.000E+00
#rwgt            1          24  -11784021.880027080                3    15702774           0
<weights>
-.11145E+08
-.12902E+08
-.92631E+07
-.15695E+08
-.74225E+07
-.91618E+07
-.13909E+08
-.11171E+08
-.11121E+08
-.10823E+08
-.10812E+08
-.10962E+08
-.11005E+08
-.10840E+08
-.10823E+08
-.11226E+08
-.11212E+08
-.11463E+08
-.11505E+08
-.11493E+08
-.11440E+08
-.11503E+08
-.11522E+08
-.11414E+08
-.11328E+08
-.11287E+08
-.11357E+08
-.11436E+08
-.11373E+08
-.11481E+08
-.11515E+08
-.11184E+08
-.11217E+08
-.11138E+08
-.11178E+08
-.11208E+08
-.11102E+08
-.11134E+08
-.11082E+08
-.11167E+08
-.11127E+08
-.11185E+08
-.11103E+08
-.11507E+08
-.10813E+08
</weights>
</event>
<event>
      6  10001 -1.11453E+07  8.94427E-01 -1.00000E+00  5.91750E-01
       2    -1     0     0   501     0  0.000000000E+00  0.000000000E+00  1.007764739E+02  1.007764739E+02  0.000000000E+00  0.00000E+00  9.000E+00
      21    -1     0     0   502   501  0.000000000E+00  0.000000000E+00 -1.435628898E-02  1.435628898E-02  0.000000000E+00  0.00000E+00  9.000E+00
      23     2     1     2     0     0  4.835486914E-01 -2.700485830E-01  9.150089581E+01  9.151306242E+01  1.385609406E+00  0.00000E+00  9.000E+00
      11     1     3     3     0     0 -4.677489856E-01  8.664070454E-02  3.032185749E+01  3.032558883E+01  5.110000000E-04  0.00000E+00  9.000E+00
     -11     1     3     3     0     0  9.512976770E-01 -3.566892875E-01  6.117903832E+01  6.118747359E+01  5.110000000E-04  0.00000E+00  9.000E+00
       2     1     1     2   502     0 -4.835486914E-01  2.700485830E-01  9.261221812E+00  9.277767783E+00  0.000000000E+00  0.00000E+00  9.000E+00
#rwgt            1          24  -16854887.213648621                3    15709391           0
<weights>
-.11145E+08
-.12549E+08
-.95803E+07
-.15260E+08
-.76765E+07
-.91656E+07
-.13909E+08
-.11179E+08
-.11112E+08
-.10841E+08
-.10841E+08
-.10969E+08
-.11021E+08
-.10863E+08
-.10850E+08
-.11223E+08
-.11196E+08
-.11435E+08
-.11471E+08
-.11460E+08
-.11414E+08
-.11468E+08
-.11492E+08
-.11373E+08
-.11326E+08
-.11278E+08
-.11304E+08
-.11405E+08
-.11348E+08
-.11443E+08
-.11481E+08
-.11174E+08
-.11217E+08
-.11140E+08
-.11172E+08
-.11215E+08
-.11093E+08
-.11098E+08
-.11123E+08
-.11157E+08
-.11135E+08
-.11181E+08
-.11108E+08
-.11478E+08
-.10838E+08
</weights>
</event>
<event>
      6  10001  1.11453E+07  8.94427E-01 -1.00000E+00  5.89830E-01
      21    -1     0     0   502   501  0.000000000E+00  0.000000000E+00  3.191635402E+01  3.191635402E+01  0.000000000E+00  0.00000E+00  9.000E+00
       1    -1     0     0   501     0  0.000000000E+00  0.000000000E+00 -2.584608491E-02  2.584608491E-02  0.000000000E+00  0.00000E+00  9.000E+00
      23     2     1     2     0     0  3.629104692E-01  4.749925383E-01  1.937352243E+01  1.941094924E+01  1.046067597E+00  0.00000E+00  9.000E+00
      11     1     3     3     0     0 -2.186163118E-01 -1.724499936E-01  7.699910411E+00  7.704943393E+00  5.110000000E-04  0.00000E+00  9.000E+00
     -11     1     3     3     0     0  5.815267811E-01  6.474425319E-01  1.167361202E+01  1.170600585E+01  5.110000000E-04  0.00000E+00  9.000E+00
       1     1     1     2   502     0 -3.629104692E-01 -4.749925383E-01  1.251698551E+01  1.253125086E+01  0.000000000E+00  0.00000E+00  9.000E+00
#rwgt            1          16   122556.92338808358                3    15711579           0
<weights>
0.11145E+08
0.14045E+08
0.84855E+07
0.11557E+08
0.10121E+08
0.12761E+08
0.83969E+07
0.10738E+08
0.11735E+08
0.10778E+08
0.10701E+08
0.10966E+08
0.10911E+08
0.10773E+08
0.10720E+08
0.11203E+08
0.11334E+08
0.11593E+08
0.11594E+08
0.11556E+08
0.11576E+08
0.11631E+08
0.11610E+08
0.11673E+08
0.11237E+08
0.11356E+08
0.11613E+08
0.11563E+08
0.11431E+08
0.11632E+08
0.11624E+08
0.11178E+08
0.11263E+08
0.11159E+08
0.11182E+08
0.10924E+08
0.11430E+08
0.11294E+08
0.10934E+08
0.11190E+08
0.11104E+08
0.11238E+08
0.11047E+08
0.11602E+08
0.10732E+08
</weights>
</event>
<event>
      6  10001 -1.11453E+07  8.94427E-01 -1.00000E+00  1.69794E-01
      21    -1     0     0   502   501  0.000000000E+00  0.000000000E+00  1.909592903E-02  1.909592903E-02  0.000000000E+00  0.00000E+00  9.000E+00
       2    -1     0     0   501     0  0.000000000E+00  0.000000000E+00 -1.367313173E+02  1.367313173E+02  0.000000000E+00  0.00000E+00  9.000E+00
      23     2     1     2     0     0 -7.772093222E-02  5.415351315E-01 -1.179574983E+02  1.179877125E+02  2.613349778E+00  0.00000E+00  9.000E+00
      11     1     3     3     0     0  1.205058107E+00  4.130038656E-01 -7.518143490E+01  7.519222627E+01  5.110000000E-04  0.00000E+00  9.000E+00
     -11     1     3     3     0     0 -1.282779039E+00  1.285312660E-01 -4.277606335E+01  4.279548620E+01  5.110000000E-04  0.00000E+00  9.000E+00
       2     1     1     2   502     0  7.772093222E-02 -5.415351315E-01 -1.875472312E+01  1.876270077E+01  0.000000000E+00  0.00000E+00  9.000E+00
#rwgt            1          17  -10674662.196679508                3    15718852           0
<weights>
-.11145E+08
-.12123E+08
-.10048E+08
-.14734E+08
-.80506E+07
-.91702E+07
-.13910E+08
-.11139E+08
-.11150E+08
-.11166E+08
-.11172E+08
-.11140E+08
-.11154E+08
-.11174E+08
-.11173E+08
-.11240E+08
-.10975E+08
-.11140E+08
-.11071E+08
-.11067E+08
-.11140E+08
-.11107E+08
-.11119E+08
-.11215E+08
-.11023E+08
-.11081E+08
-.11171E+08
-.11136E+08
-.11066E+08
-.11116E+08
-.11117E+08
-.11100E+08
-.11179E+08
-.11143E+08
-.11140E+08
-.11139E+08
-.11146E+08
-.11155E+08
-.11139E+08
-.11125E+08
-.11159E+08
-.11182E+08
-.11106E+08
-.11115E+08
-.11172E+08
</weights>
</event>
<event>
      7  10001 -1.11453E+07  1.20118E+00 -1.00000E+00  4.96418E-01
       2    -1     0     0   501     0  0.000000000E+00  0.000000000E+00  5.411323026E+00  5.411323026E+00  0.000000000E+00  0.00000E+00  9.000E+00
      21    -1     0     0   502   511  0.000000000E+00  0.000000000E+00 -2.712974627E+01  2.712974627E+01  0.000000000E+00  0.00000E+00  9.000E+00
      23     2     1     2     0     0  7.842426207E-01 -1.065072927E-01  3.723392491E+00  3.993077155E+00  1.206081770E+00  0.00000E+00  9.000E+00
      11     1     3     3     0     0  1.882958646E-01 -9.533020676E-02  3.178493228E+00  3.185492527E+00  5.110000000E-04  0.00000E+00  9.000E+00
     -11     1     3     3     0     0  5.959467561E-01 -1.117708596E-02  5.448992629E-01  8.075846279E-01  5.110000000E-04  0.00000E+00  9.000E+00
       2     1     1     2   502     0  2.712456615E-01 -4.668829479E-01  1.492363335E+00  1.587041971E+00  0.000000000E+00  0.00000E+00  9.000E+00
      21     1     1     2   501   511 -1.055488282E+00  5.733902407E-01 -2.693417907E+01  2.696095017E+01  0.000000000E+00  0.00000E+00  9.000E+00
#rwgt            1          24  -1292093.6798523308                3    15721174           0
<weights>
-.11145E+08
-.92440E+07
-.12593E+08
-.16124E+08
-.73612E+07
-.60915E+07
-.18636E+08
-.11239E+08
-.11048E+08
-.11036E+08
-.11125E+08
-.11051E+08
-.11169E+08
-.11097E+08
-.11122E+08
-.11199E+08
-.11037E+08
-.11164E+08
-.11127E+08
-.11131E+08
-.11161E+08
-.11138E+08
-.11181E+08
-.11021E+08
-.11264E+08
-.11157E+08
-.10919E+08
-.11103E+08
-.11122E+08
-.11087E+08
-.11149E+08
-.11089E+08
-.11202E+08
-.11164E+08
-.11118E+08
-.11259E+08
-.11036E+08
-.10802E+08
-.11473E+08
-.11070E+08
-.11212E+08
-.11142E+08
-.11149E+08
-.11190E+08
-.11090E+08
</weights>
</event>
<event>
      7  10001  1.11453E+07  1.01892E+00 -1.00000E+00  5.55379E-01
      21    -1     0     0   502   501  0.000000000E+00  0.000000000E+00  1.158567928E+00  1.158567928E+00  0.000000000E+00  0.00000E+00  9.000E+00
      -4    -1     0     0     0   502  0.000000000E+00  0.000000000E+00 -1.192590573E+00  1.192590573E+00  0.000000000E+00  0.00000E+00  9.000E+00
      23     2     1     2     0     0  6.865699490E-01 -1.674179080E-01 -3.755637943E-01  1.475741947E+00  1.239902851E+00  0.00000E+00  9.000E+00
      11     1     3     3     0     0  7.511314182E-01 -5.685083989E-01 -3.016153495E-02  9.425020882E-01  5.110000000E-04  0.00000E+00  9.000E+00
     -11     1     3     3     0     0 -6.456146920E-02  4.010904908E-01 -3.454022594E-01  5.332398588E-01  5.110000000E-04  0.00000E+00  9.000E+00
      -4     1     1     2     0   511  7.531075769E-03 -4.619931032E-02  9.942262976E-02  1.098906397E-01  0.000000000E+00  0.00000E+00  9.000E+00
      21     1     1     2   511   501 -6.941010248E-01  2.136172184E-01  2.421185199E-01  7.655259149E-01  3.994928783E-08  0.00000E+00  9.000E+00
#rwgt            1          12   342938.15873572300                3    15758809           0
<weights>
0.11145E+08
0.18885E+08
0.45809E+07
0.94536E+07
0.11065E+08
0.17607E+08
0.95931E+06
0.11197E+08
0.11084E+08
0.10515E+08
0.10387E+08
0.10802E+08
0.10823E+08
0.10487E+08
0.10415E+08
0.11292E+08
0.11419E+08
0.11918E+08
0.11898E+08
0.11899E+08
0.11854E+08
0.12004E+08
0.11972E+08
0.11679E+08
0.11558E+08
0.11609E+08
0.11101E+08
0.11932E+08
0.11647E+08
0.12011E+08
0.12012E+08
0.11318E+08
0.11231E+08
0.11084E+08
0.11274E+08
0.11264E+08
0.11058E+08
0.11540E+08
0.10612E+08
0.11292E+08
0.11021E+08
0.11216E+08
0.11071E+08
0.11944E+08
0.10427E+08
</weights>
</event>
<event>
      6  10001 -1.11453E+07  8.94427E-01 -1.00000E+00  5.79825E-01
       2    -1     0     0   501     0  0.000000000E+00  0.000000000E+00  4.967841521E+01  4.967841521E+01  0.000000000E+00  0.00000E+00  9.000E+00
      21    -1     0     0   502   501  0.000000000E+00  0.000000000E+00 -2.359106899E-02  2.359106899E-02  0.000000000E+00  0.00000E+00  9.000E+00
      23     2     1     2     0     0  3.094534107E-01  4.638503380E-01  4.312415148E+01  4.314757237E+01  1.307532572E+00  0.00000E+00  9.000E+00
      11     1     3     3     0     0  7.469318712E-01  5.040386607E-01  2.137576858E+01  2.139475274E+01  5.110000000E-04  0.00000E+00  9.000E+00
     -11     1     3     3     0     0 -4.374784605E-01 -4.018832261E-02  2.174838290E+01  2.175281962E+01  5.110000000E-04  0.00000E+00  9.000E+00
       2     1     1     2   502     0 -3.094534107E-01 -4.638503380E-01  6.530672656E+00  6.554433911E+00  0.000000000E+00  0.00000E+00  9.000E+00
#rwgt            1          24  -23570961.325286761                3    15767564           0
<weights>
-.11145E+08
-.12800E+08
-.93269E+07
-.15575E+08
-.74737E+07
-.91595E+07
-.13909E+08
-.11167E+08
-.11125E+08
-.10817E+08
-.10804E+08
-.10960E+08
-.11001E+08
-.10834E+08
-.10815E+08
-.11226E+08
-.11216E+08
-.11470E+08
-.11516E+08
-.11503E+08
-.11446E+08
-.11512E+08
-.11530E+08
-.11428E+08
-.11328E+08
-.11288E+08
-.11382E+08
-.11444E+08
-.11380E+08
-.11491E+08
-.11524E+08
-.11186E+08
-.11217E+08
-.11137E+08
-.11179E+08
-.11205E+08
-.11105E+08
-.11144E+08
-.11072E+08
-.11169E+08
-.11125E+08
-.11187E+08
-.11102E+08
-.11515E+08
-.10806E+08
</weights>
</event>
<event>
      6  10001 -1.11453E+07  8.94427E-01 -1.00000E+00  2.41365E-01
       5    -1     0     0   501     0  0.000000000E+00  0.000000000E+00  1.479176285E+00  1.479176285E+00  0.000000000E+00  0.00000E+00  9.000E+00
      21    -1     0     0   502   501  0.000000000E+00  0.000000000E+00 -6.781628628E-01  6.781628628E-01  0.000000000E+00  0.00000E+00  9.000E+00
      23     2     1     2     0     0  9.077504432E-02  3.877406887E-01  4.384772364E-02  1.301837631E+00  1.238658809E+00  0.00000E+00  9.000E+00
      11     1     3     3     0     0  3.781814432E-01  1.991843825E-02  5.145716800E-01  6.389070536E-01  5.110000000E-04  0.00000E+00  9.000E+00
     -11     1     3     3     0     0 -2.874063989E-01  3.678222504E-01 -4.707239564E-01  6.629305772E-01  5.110000000E-04  0.00000E+00  9.000E+00
       5     1     1     2   502     0 -9.077504432E-02 -3.877406887E-01  7.571656983E-01  8.555015166E-01  0.000000000E+00  0.00000E+00  9.000E+00
#rwgt            1          30  -38145.218408101864                3    15770834           0
<weights>
-.11191E+08
-.67126E+07
-.13421E+08
-.17206E+08
-.69984E+07
-.38735E+07
-.21162E+08
-.11272E+08
-.11108E+08
-.11118E+08
-.11208E+08
-.11109E+08
-.11241E+08
-.11178E+08
-.11206E+08
-.11232E+08
-.11078E+08
-.11169E+08
-.11143E+08
-.11143E+08
-.11170E+08
-.11140E+08
-.11185E+08
-.11059E+08
-.11283E+08
-.11196E+08
-.11025E+08
-.11115E+08
-.11137E+08
-.11090E+08
-.11150E+08
-.11127E+08
-.11242E+08
-.11210E+08
-.11160E+08
-.11301E+08
-.11084E+08
-.10829E+08
-.11529E+08
-.11106E+08
-.11267E+08
-.11180E+08
-.11204E+08
-.11194E+08
-.11174E+08
</weights>
</event>
<event>
      7  10001  1.11453E+07  3.85318E+00 -1.00000E+00  2.64069E-01
      21    -1     0     0   511   502  0.000000000E+00  0.000000000E+00  2.455585779E-01  2.455585779E-01  0.000000000E+00  0.00000E+00  9.000E+00
       4    -1     0     0   501     0  0.000000000E+00  0.000000000E+00 -5.659873322E+02  5.659873322E+02  0.000000000E+00  0.00000E+00  9.000E+00
      23     2     1     2     0     0  4.134262882E-02  8.022871217E-01 -3.669888690E+02  3.670133095E+02  4.158607690E+00  0.00000E+00  9.000E+00
      11     1     3     3     0     0  4.448081647E-01  6.624340572E-01 -1.315164751E+01  1.317583036E+01  5.110000000E-04  0.00000E+00  9.000E+00
     -11     1     3     3     0     0 -4.034655358E-01  1.398530644E-01 -3.538372215E+02  3.538374792E+02  5.110000000E-04  0.00000E+00  9.000E+00
      21     1     1     2   501   502 -3.833416327E+00 -1.485777202E+00 -1.966203643E+01  2.008726689E+01  4.768371582E-07  0.00000E+00  9.000E+00
       4     1     1     2   511     0  3.792073699E+00  6.834900803E-01 -1.790908682E+02  1.791323144E+02  0.000000000E+00  0.00000E+00  9.000E+00
#rwgt            1           4   164514.08756822333                3    15772281           0
<weights>
0.11145E+08
0.11777E+08
0.10350E+08
0.12668E+08
0.94076E+07
0.10305E+08
0.12168E+08
0.10696E+08
0.11591E+08
0.12313E+08
0.11687E+08
0.11300E+08
0.11942E+08
0.11859E+08
0.11859E+08
0.10959E+08
0.11157E+08
0.10469E+08
0.10534E+08
0.10552E+08
0.10506E+08
0.10429E+08
0.10430E+08
0.11152E+08
0.10241E+08
0.10519E+08
0.11411E+08
0.10663E+08
0.10788E+08
0.10674E+08
0.10417E+08
0.11432E+08
0.10633E+08
0.10932E+08
0.11369E+08
0.10734E+08
0.11511E+08
0.12415E+08
0.98935E+07
0.10854E+08
0.11423E+08
0.10933E+08
0.11373E+08
0.10293E+08
0.11991E+08
</weights>
</event>
<event>
      7  10001  1.11453E+07  1.56482E+00 -1.00000E+00  4.06505E-01
      21    -1     0     0   502   501  0.000000000E+00  0.000000000E+00  3.476988308E-02  3.476988308E-02  0.000000000E+00  0.00000E+00  9.000E+00
       2    -1     0     0   501     0  0.000000000E+00  0.000000000E+00 -1.441042526E+02  1.441042526E+02  0.000000000E+00  0.00000E+00  9.000E+00
      23     2     1     2     0     0  1.045344742E-01  1.370685823E+00 -1.177757205E+02  1.177917355E+02  1.372194341E+00  0.00000E+00  9.000E+00
      11     1     3     3     0     0  5.607656104E-01  7.793770156E-02 -3.060755543E+01  3.061279115E+01  5.110000000E-04  0.00000E+00  9.000E+00
     -11     1     3     3     0     0 -4.562311362E-01  1.292748122E+00 -8.716816506E+01  8.717894439E+01  5.110000000E-04  0.00000E+00  9.000E+00
       2     1     1     2   511     0 -5.603611866E-02 -5.829292951E-01 -1.934240105E+01  1.935126417E+01  0.000000000E+00  0.00000E+00  9.000E+00
      21     1     1     2   502   511 -4.849835556E-02 -7.877565281E-01 -6.951361188E+00  6.996022785E+00  3.371747881E-07  0.00000E+00  9.000E+00
#rwgt            2         189   15336191.683274541                3    15773451           0
<weights>
0.11145E+08
0.11227E+08
0.10865E+08
0.13645E+08
0.87056E+07
0.91702E+07
0.13910E+08
0.11137E+08
0.11152E+08
0.11168E+08
0.11172E+08
0.11136E+08
0.11161E+08
0.11174E+08
0.11173E+08
0.11250E+08
0.10962E+08
0.11152E+08
0.11055E+08
0.11049E+08
0.11153E+08
0.11106E+08
0.11121E+08
0.11210E+08
0.11026E+08
0.11086E+08
0.11168E+08
0.11122E+08
0.11084E+08
0.11114E+08
0.11119E+08
0.11095E+08
0.11184E+08
0.11154E+08
0.11126E+08
0.11140E+08
0.11145E+08
0.11159E+08
0.11135E+08
0.11130E+08
0.11155E+08
0.11180E+08
0.11108E+08
0.11114E+08
0.11172E+08
</weights>
</event>
<event>
      7  10001  1.11453E+07  1.06757E+00 -1.00000E+00  5.37909E-01
       2    -1     0     0   501     0  0.000000000E+00  0.000000000E+00  1.351390343E-01  1.351390343E-01  0.000000000E+00  0.00000E+00  9.000E+00
      -2    -1     0     0     0   502  0.000000000E+00  0.000000000E+00 -1.300276222E+01  1.300276222E+01  0.000000000E+00  0.00000E+00  9.000E+00
      23     2     1     2     0     0 -4.055500634E-01 -3.269052320E-02 -4.468983685E+00  4.699671164E+00  1.396264426E+00  0.00000E+00  9.000E+00
      11     1     3     3     0     0 -5.172839860E-01 -6.169275023E-01 -3.175534271E+00  3.276003729E+00  5.110000000E-04  0.00000E+00  9.000E+00
     -11     1     3     3     0     0  1.117339226E-01  5.842369791E-01 -1.293449414E+00  1.423667435E+00  5.110000000E-04  0.00000E+00  9.000E+00
      21     1     1     2   501   512 -1.982627966E-01  5.524345165E-03 -2.812912408E+00  2.819896252E+00  5.161913656E-08  0.00000E+00  9.000E+00
      21     1     1     2   512   502  6.038128600E-01  2.716617803E-02 -5.585727096E+00  5.618333842E+00  5.960464478E-08  0.00000E+00  9.000E+00
#rwgt            1          23   399034.91975730349                3    15774234           0
<weights>
0.11145E+08
0.12636E+08
0.97184E+07
0.12295E+08
0.96153E+07
0.11151E+08
0.10869E+08
0.11167E+08
0.11118E+08
0.10829E+08
0.10840E+08
0.10983E+08
0.10971E+08
0.10849E+08
0.10846E+08
0.11133E+08
0.11325E+08
0.11462E+08
0.11442E+08
0.11422E+08
0.11451E+08
0.11462E+08
0.11512E+08
0.11337E+08
0.11352E+08
0.11435E+08
0.11007E+08
0.11455E+08
0.11224E+08
0.11434E+08
0.11466E+08
0.11110E+08
0.11278E+08
0.11195E+08
0.11118E+08
0.10998E+08
0.11309E+08
0.11009E+08
0.11164E+08
0.11155E+08
0.11130E+08
0.11243E+08
0.11042E+08
0.11479E+08
0.10837E+08
</weights>
</event>
<event>
      6  10001 -1.11453E+07  8.94427E-01 -1.00000E+00  3.87337E-01
      21    -1     0     0   502   501  0.000000000E+00  0.000000000E+00  2.259333724E-03  2.259333724E-03  0.000000000E+00  0.00000E+00  9.000E+00
       2    -1     0     0   501     0  0.000000000E+00  0.000000000E+00 -8.718788634E+02  8.718788634E+02  0.000000000E+00  0.00000E+00  9.000E+00
      23     2     1     2     0     0 -2.432653231E-01 -9.977560169E-01 -6.569321567E+02  6.569342219E+02  1.287940774E+00  0.00000E+00  9.000E+00
      11     1     3     3     0     0  2.902732511E-01 -5.144152829E-01 -5.063354912E+02  5.063358357E+02  5.110000000E-04  0.00000E+00  9.000E+00
     -11     1     3     3     0     0 -5.335385742E-01 -4.833407341E-01 -1.505966655E+02  1.505983862E+02  5.110000000E-04  0.00000E+00  9.000E+00
       2     1     1     2   502     0  2.432653231E-01  9.977560169E-01 -2.149444474E+02  2.149469008E+02  0.000000000E+00  0.00000E+00  9.000E+00
#rwgt            1          17  -12121077.476220353                3    15776436           0
<weights>
-.11145E+08
-.11543E+08
-.10570E+08
-.14030E+08
-.84690E+07
-.91702E+07
-.13910E+08
-.11136E+08
-.11154E+08
-.11163E+08
-.11137E+08
-.10913E+08
-.11404E+08
-.11152E+08
-.11145E+08
-.10924E+08
-.11456E+08
-.11597E+08
-.10536E+08
-.10438E+08
-.11660E+08
-.11124E+08
-.11165E+08
-.10916E+08
-.11350E+08
-.11617E+08
-.10864E+08
-.10530E+08
-.11872E+08
-.11046E+08
-.11214E+08
-.11150E+08
-.11137E+08
-.11780E+08
-.10398E+08
-.11047E+08
-.11237E+08
-.11116E+08
-.11187E+08
-.11331E+08
-.10982E+08
-.11115E+08
-.11177E+08
-.11139E+08
-.11152E+08
</weights>
</event>
<event>
      7  10001  1.11453E+07  3.02481E+00 -1.00000E+00  2.91241E-01
      21    -1     0     0   501   511  0.000000000E+00  0.000000000E+00  1.488848377E+02  1.488848377E+02  0.000000000E+00  0.00000E+00  9.000E+00
      21    -1     0     0   502   501  0.000000000E+00  0.000000000E+00 -4.343599913E-01  4.343599913E-01  0.000000000E+00  0.00000E+00  9.000E+00
      23     2     1     2     0     0 -4.422669916E+00 -5.105941768E-01  5.499940458E+01  5.521906241E+01  2.095145164E+00  0.00000E+00  9.000E+00
      11     1     3     3     0     0 -3.222437818E+00 -8.397325135E-01  2.912709761E+01  2.931683939E+01  5.110000000E-04  0.00000E+00  9.000E+00
     -11     1     3     3     0     0 -1.200232098E+00  3.291383366E-01  2.587230697E+01  2.590222302E+01  5.110000000E-04  0.00000E+00  9.000E+00
       4     1     1     2   502     0  7.398562604E+00 -3.122260276E-02  5.006338920E+01  5.060714022E+01  0.000000000E+00  0.00000E+00  9.000E+00
      -4     1     1     2     0   511 -2.975892688E+00  5.418167796E-01  4.338768393E+01  4.349299507E+01  0.000000000E+00  0.00000E+00  9.000E+00
#rwgt            1          28   450034.75603106868                3    15776913           0
<weights>
0.11145E+08
0.12819E+08
0.93233E+07
0.12973E+08
0.91453E+07
0.10929E+08
0.11211E+08
0.11178E+08
0.11110E+08
0.10799E+08
0.10778E+08
0.10950E+08
0.10991E+08
0.10812E+08
0.10790E+08
0.11233E+08
0.11226E+08
0.11501E+08
0.11531E+08
0.11522E+08
0.11474E+08
0.11543E+08
0.11558E+08
0.11425E+08
0.11347E+08
0.11310E+08
0.11283E+08
0.11475E+08
0.11396E+08
0.11524E+08
0.11555E+08
0.11196E+08
0.11216E+08
0.11133E+08
0.11186E+08
0.11213E+08
0.11097E+08
0.11172E+08
0.11038E+08
0.11178E+08
0.11118E+08
0.11188E+08
0.11100E+08
0.11541E+08
0.10783E+08
</weights>
</event>
<event>
      7  10001  1.11453E+07  2.08609E+00 -1.00000E+00  3.46313E-01
      -5    -1     0     0     0   502  0.000000000E+00  0.000000000E+00  2.834024191E+01  2.834024191E+01  0.000000000E+00  0.00000E+00  9.000E+00
      21    -1     0     0   502   501  0.000000000E+00  0.000000000E+00 -7.899710883E-01  7.899710883E-01  0.000000000E+00  0.00000E+00  9.000E+00
      23     2     1     2     0     0  3.088758118E+00 -1.449819926E+00  6.909229038E+00  7.812274289E+00  1.285215600E+00  0.00000E+00  9.000E+00
      11     1     3     3     0     0  2.709670718E+00 -1.259622285E+00  6.706727151E+00  7.342285274E+00  5.110000000E-04  0.00000E+00  9.000E+00
     -11     1     3     3     0     0  3.790873997E-01 -1.901976407E-01  2.025018872E-01  4.699890154E-01  5.110000000E-04  0.00000E+00  9.000E+00
      -5     1     1     2     0   511 -3.582600920E+00  9.287456523E-01  2.004799975E+01  2.038675776E+01  0.000000000E+00  0.00000E+00  9.000E+00
      21     1     1     2   511   501  4.938428026E-01  5.210742736E-01  5.930420319E-01  9.311809512E-01  1.667665637E-07  0.00000E+00  9.000E+00
#rwgt            1           1   47786.476961929009                3    15842658           0
<weights>
0.11145E+08
0.15500E+08
0.69065E+07
0.13293E+08
0.85357E+07
0.12655E+08
0.85609E+07
0.11179E+08
0.11107E+08
0.10712E+08
0.10668E+08
0.10910E+08
0.10936E+08
0.10713E+08
0.10682E+08
0.11245E+08
0.11283E+08
0.11611E+08
0.11659E+08
0.11649E+08
0.11575E+08
0.11670E+08
0.11689E+08
0.11516E+08
0.11401E+08
0.11376E+08
0.11300E+08
0.11594E+08
0.11475E+08
0.11655E+08
0.11685E+08
0.11223E+08
0.11228E+08
0.11127E+08
0.11201E+08
0.11217E+08
0.11097E+08
0.11247E+08
0.10933E+08
0.11209E+08
0.11090E+08
0.11200E+08
0.11088E+08
0.11658E+08
0.10679E+08
</weights>
</event>
<event>
      7  10001  1.11453E+07  2.49996E+00 -1.00000E+00  3.17023E-01
      21    -1     0     0   502   501  0.000000000E+00  0.000000000E+00  7.405225288E+00  7.405225288E+00  0.000000000E+00  0.00000E+00  9.000E+00
      -4    -1     0     0     0   502  0.000000000E+00  0.000000000E+00 -1.162680375E+00  1.162680375E+00  0.000000000E+00  0.00000E+00  9.000E+00
      23     2     1     2     0     0 -1.713112049E+00 -4.010721198E-01  3.356316139E-01  2.157154106E+00  1.202103789E+00  0.00000E+00  9.000E+00
      11     1     3     3     0     0 -1.052917645E+00  1.855455637E-01 -2.493375398E-01  1.097830676E+00  5.110000000E-04  0.00000E+00  9.000E+00
     -11     1     3     3     0     0 -6.601944035E-01 -5.866176835E-01  5.849691537E-01  1.059323430E+00  5.110000000E-04  0.00000E+00  9.000E+00
      -4     1     1     2     0   512  1.017637619E+00 -6.616291487E-02  9.842336153E-01  1.417278965E+00  0.000000000E+00  0.00000E+00  9.000E+00
      21     1     1     2   512   501  6.954744301E-01  4.672350347E-01  4.922679683E+00  4.993472592E+00  1.032382731E-07  0.00000E+00  9.000E+00
#rwgt            2         154   1290665.3938749204                3    15848575           0
<weights>
0.11145E+08
0.11423E+08
0.10585E+08
0.13883E+08
0.84810E+07
0.91702E+07
0.13910E+08
0.11202E+08
0.11085E+08
0.10815E+08
0.10807E+08
0.10950E+08
0.11015E+08
0.10834E+08
0.10818E+08
0.11231E+08
0.11212E+08
0.11479E+08
0.11484E+08
0.11481E+08
0.11452E+08
0.11508E+08
0.11528E+08
0.11346E+08
0.11371E+08
0.11336E+08
0.11127E+08
0.11455E+08
0.11355E+08
0.11484E+08
0.11520E+08
0.11186E+08
0.11216E+08
0.11132E+08
0.11182E+08
0.11243E+08
0.11065E+08
0.11121E+08
0.11086E+08
0.11167E+08
0.11128E+08
0.11177E+08
0.11112E+08
0.11513E+08
0.10807E+08
</weights>
</event>
<event>
      6  10001  1.11453E+07  8.94427E-01 -1.00000E+00  6.05362E-01
      21    -1     0     0   502   501  0.000000000E+00  0.000000000E+00  3.973800676E-02  3.973800676E-02  0.000000000E+00  0.00000E+00  9.000E+00
      -4    -1     0     0     0   502  0.000000000E+00  0.000000000E+00 -1.836382440E+02  1.836382440E+02  0.000000000E+00  0.00000E+00  9.000E+00
      23     2     1     2     0     0  2.160569386E-01  3.772011781E-01 -1.820982172E+02  1.821159872E+02  2.506616039E+00  0.00000E+00  9.000E+00
      11     1     3     3     0     0 -5.430359201E-01  5.342994142E-02 -9.415518553E+00  9.431316592E+00  5.110000000E-04  0.00000E+00  9.000E+00
     -11     1     3     3     0     0  7.590928587E-01  3.237712367E-01 -1.726826986E+02  1.726846706E+02  5.110000000E-04  0.00000E+00  9.000E+00
      -4     1     1     2     0   501 -2.160569386E-01 -3.772011781E-01 -1.500288847E+00  1.561994864E+00  0.000000000E+00  0.00000E+00  9.000E+00
#rwgt            1          12   592746.40767828072                3    15848769           0
<weights>
0.11145E+08
0.14231E+08
0.80114E+07
0.12674E+08
0.92955E+07
0.12234E+08
0.92062E+07
0.11095E+08
0.11187E+08
0.11367E+08
0.11337E+08
0.11016E+08
0.11526E+08
0.11463E+08
0.11407E+08
0.11149E+08
0.10921E+08
0.10902E+08
0.10703E+08
0.10698E+08
0.10927E+08
0.10865E+08
0.10693E+08
0.11094E+08
0.10763E+08
0.10853E+08
0.11249E+08
0.10897E+08
0.10928E+08
0.10849E+08
0.10833E+08
0.11121E+08
0.11073E+08
0.11121E+08
0.11156E+08
0.11184E+08
0.11097E+08
0.10949E+08
0.11404E+08
0.10880E+08
0.11392E+08
0.11029E+08
0.11270E+08
0.10866E+08
0.11370E+08
</weights>
</event>
<event>
      6  10001 -1.11453E+07  8.94427E-01 -1.00000E+00  5.31688E-01
      21    -1     0     0   502   501  0.000000000E+00  0.000000000E+00  6.758372021E-03  6.758372021E-03  0.000000000E+00  0.00000E+00  9.000E+00
       2    -1     0     0   501     0  0.000000000E+00  0.000000000E+00 -2.513685899E+02  2.513685899E+02  0.000000000E+00  0.00000E+00  9.000E+00
      23     2     1     2     0     0 -2.347771683E-02  2.739173631E-01 -2.463408668E+02  2.463468625E+02  1.696598720E+00  0.00000E+00  9.000E+00
      11     1     3     3     0     0 -2.370798421E-01  8.834089026E-02 -2.395148004E+02  2.395149340E+02  5.110000000E-04  0.00000E+00  9.000E+00
     -11     1     3     3     0     0  2.136021253E-01  1.855764729E-01 -6.826066377E+00  6.831928493E+00  5.110000000E-04  0.00000E+00  9.000E+00
       2     1     1     2   502     0  2.347771683E-02 -2.739173631E-01 -5.020964757E+00  5.028485758E+00  0.000000000E+00  0.00000E+00  9.000E+00
#rwgt            1          17  -17652117.433795780                3    15865359           0
<weights>
-.11145E+08
-.11851E+08
-.10284E+08
-.14403E+08
-.82401E+07
-.91702E+07
-.13910E+08
-.11127E+08
-.11162E+08
-.11172E+08
-.11165E+08
-.11074E+08
-.11234E+08
-.11167E+08
-.11166E+08
-.11326E+08
-.10867E+08
-.11292E+08
-.10887E+08
-.10857E+08
-.11308E+08
-.11103E+08
-.11149E+08
-.11151E+08
-.11087E+08
-.11171E+08
-.11120E+08
-.10965E+08
-.11290E+08
-.11094E+08
-.11150E+08
-.11044E+08
-.11239E+08
-.11291E+08
-.10954E+08
-.11132E+08
-.11155E+08
-.11170E+08
-.11121E+08
-.11183E+08
-.11109E+08
-.11157E+08
-.11132E+08
-.11120E+08
-.11169E+08
</weights>
</event>
<event>
      6  10001 -1.11453E+07  8.94427E-01 -1.00000E+00  5.44250E-01
      21    -1     0     0   502   501  0.000000000E+00  0.000000000E+00  2.026055203E-03  2.026055203E-03  0.000000000E+00  0.00000E+00  9.000E+00
       2    -1     0     0   501     0  0.000000000E+00  0.000000000E+00 -6.875894376E+02  6.875894376E+02  0.000000000E+00  0.00000E+00  9.000E+00
      23     2     1     2     0     0  3.540076857E-01 -3.116637988E-01 -6.444529600E+02  6.444544336E+02  1.294921086E+00  0.00000E+00  9.000E+00
      11     1     3     3     0     0  6.785244189E-01 -3.190861260E-01 -2.077781182E+02  2.077794711E+02  5.110000000E-04  0.00000E+00  9.000E+00
     -11     1     3     3     0     0 -3.245167332E-01  7.422327232E-03 -4.366748418E+02  4.366749625E+02  5.110000000E-04  0.00000E+00  9.000E+00
       2     1     1     2   502     0 -3.540076857E-01  3.116637988E-01 -4.313445149E+01  4.313703004E+01  0.000000000E+00  0.00000E+00  9.000E+00
#rwgt            1          17  -72095916.939003080                3    15866354           0
<weights>
-.11145E+08
-.10934E+08
-.11427E+08
-.13289E+08
-.91561E+07
-.91702E+07
-.13910E+08
-.11134E+08
-.11157E+08
-.11163E+08
-.11142E+08
-.10936E+08
-.11379E+08
-.11153E+08
-.11147E+08
-.11099E+08
-.11201E+08
-.11560E+08
-.10579E+08
-.10492E+08
-.11615E+08
-.11116E+08
-.11171E+08
-.10963E+08
-.11297E+08
-.11504E+08
-.10928E+08
-.10607E+08
-.11768E+08
-.11052E+08
-.11207E+08
-.11083E+08
-.11205E+08
-.11682E+08
-.10505E+08
-.11067E+08
-.11218E+08
-.11127E+08
-.11173E+08
-.11303E+08
-.11006E+08
-.11122E+08
-.11170E+08
-.11137E+08
-.11154E+08
</weights>
</event>
<event>
      6  10001  1.11453E+07  8.94427E-01 -1.00000E+00  6.05045E-01
       2    -1     0     0   501     0  0.000000000E+00  0.000000000E+00  1.314822421E+02  1.314822421E+02  0.000000000E+00  0.00000E+00  9.000E+00
      -2    -1     0     0     0   502  0.000000000E+00  0.000000000E+00 -9.097981938E-02  9.097981938E-02  0.000000000E+00  0.00000E+00  9.000E+00
      23     2     1     2     0     0  2.794918137E-01  7.448984948E-02  1.312094399E+02  1.312315733E+02  2.392706877E+00  0.00000E+00  9.000E+00
      11     1     3     3     0     0  3.374910005E-01  1.102731278E+00  9.641107187E+01  9.641796874E+01  5.110000000E-04  0.00000E+00  9.000E+00
     -11     1     3     3     0     0 -5.799918680E-02 -1.028241429E+00  3.479836802E+01  3.481360454E+01  5.110000000E-04  0.00000E+00  9.000E+00
      21     1     1     2   501   502 -2.794918137E-01 -7.448984948E-02  1.818224030E-01  3.416486468E-01  5.195411176E-08  0.00000E+00  9.000E+00
#rwgt            1          23   3332364.5234703603                3    15868679           0
<weights>
0.11145E+08
0.11836E+08
0.10392E+08
0.12344E+08
0.96679E+07
0.10551E+08
0.11790E+08
0.10957E+08
0.11402E+08
0.10804E+08
0.10761E+08
0.10968E+08
0.10956E+08
0.10810E+08
0.10776E+08
0.11194E+08
0.11290E+08
0.11518E+08
0.11537E+08
0.11518E+08
0.11496E+08
0.11563E+08
0.11558E+08
0.11510E+08
0.11285E+08
0.11333E+08
0.11336E+08
0.11508E+08
0.11375E+08
0.11552E+08
0.11561E+08
0.11174E+08
0.11245E+08
0.11135E+08
0.11189E+08
0.11052E+08
0.11278E+08
0.11204E+08
0.11017E+08
0.11179E+08
0.11115E+08
0.11214E+08
0.11073E+08
0.11549E+08
0.10777E+08
</weights>
</event>
<event>
      6  10001  1.11453E+07  8.94427E-01 -1.00000E+00  6.06625E-01
       4    -1     0     0   501     0  0.000000000E+00  0.000000000E+00  9.629312325E+01  9.629312325E+01  0.000000000E+00  0.00000E+00  9.000E+00
      -4    -1     0     0     0   502  0.000000000E+00  0.000000000E+00 -2.524406216E-02  2.524406216E-02  0.000000000E+00  0.00000E+00  9.000E+00
      23     2     1     2     0     0 -1.570526819E-01  3.009697488E-01  9.448769383E+01  9.450610126E+01  1.834023391E+00  0.00000E+00  9.000E+00
      11     1     3     3     0     0  8.274136763E-01  2.842285842E-01  4.815720707E+01  4.816515330E+01  5.110000000E-04  0.00000E+00  9.000E+00
     -11     1     3     3     0     0 -9.844663582E-01  1.674116459E-02  4.633048675E+01  4.634094796E+01  5.110000000E-04  0.00000E+00  9.000E+00
      21     1     1     2   501   502  1.570526819E-01 -3.009697488E-01  1.780185367E+00  1.812266061E+00  9.424321831E-08  0.00000E+00  9.000E+00
#rwgt            1          27   95291.513163957628                3    15871746           0
<weights>
0.11145E+08
0.14744E+08
0.78255E+07
0.12048E+08
0.95374E+07
0.12865E+08
0.82373E+07
0.11118E+08
0.11181E+08
0.10734E+08
0.10674E+08
0.10929E+08
0.10927E+08
0.10732E+08
0.10691E+08
0.11237E+08
0.11289E+08
0.11592E+08
0.11681E+08
0.11656E+08
0.11560E+08
0.11666E+08
0.11663E+08
0.11637E+08
0.11327E+08
0.11315E+08
0.11714E+08
0.11577E+08
0.11497E+08
0.11661E+08
0.11678E+08
0.11229E+08
0.11221E+08
0.11126E+08
0.11206E+08
0.11162E+08
0.11156E+08
0.11314E+08
0.10903E+08
0.11211E+08
0.11088E+08
0.11210E+08
0.11078E+08
0.11644E+08
0.10693E+08
</weights>
</event>
<event>
      7  10001  1.11453E+07  8.94427E-01 -1.00000E+00  6.07649E-01
      21    -1     0     0   511   502  0.000000000E+00  0.000000000E+00  1.258089988E+02  1.258089988E+02  0.000000000E+00  0.00000E+00  9.000E+00
       4    -1     0     0   501     0  0.000000000E+00  0.000000000E+00 -7.185809074E-02  7.185809074E-02  0.000000000E+00  0.00000E+00  9.000E+00
      23     2     1     2     0     0 -8.317203223E-01 -1.854042897E-01  1.536370117E+01  1.549526510E+01  1.825867820E+00  0.00000E+00  9.000E+00
      11     1     3     3     0     0 -7.242842053E-01  3.555922003E-01  1.401407106E+01  1.403727970E+01  5.110000000E-04  0.00000E+00  9.000E+00
     -11     1     3     3     0     0 -1.074361169E-01 -5.409964900E-01  1.349630115E+00  1.457985401E+00  5.110000000E-04  0.00000E+00  9.000E+00
      21     1     1     2   501   502  9.441203191E-01 -4.936633218E-02  1.061113637E+02  1.061155752E+02  1.907348633E-06  0.00000E+00  9.000E+00
       4     1     1     2   511     0 -1.123999968E-01  2.347706219E-01  4.262075855E+00  4.270016580E+00  0.000000000E+00  0.00000E+00  9.000E+00
#rwgt            2         196   216134.14978444949                3    15879023           0
<weights>
0.11145E+08
0.10836E+08
0.11285E+08
0.13170E+08
0.90418E+07
0.91702E+07
0.13910E+08
0.11173E+08
0.11117E+08
0.10800E+08
0.10779E+08
0.10951E+08
0.10990E+08
0.10814E+08
0.10792E+08
0.11232E+08
0.11226E+08
0.11498E+08
0.11535E+08
0.11524E+08
0.11471E+08
0.11542E+08
0.11556E+08
0.11435E+08
0.11342E+08
0.11305E+08
0.11326E+08
0.11473E+08
0.11397E+08
0.11523E+08
0.11554E+08
0.11195E+08
0.11217E+08
0.11134E+08
0.11185E+08
0.11209E+08
0.11102E+08
0.11172E+08
0.11043E+08
0.11177E+08
0.11118E+08
0.11189E+08
0.11100E+08
0.11540E+08
0.10784E+08
</weights>
</event>
<event>
      6  10001 -1.11453E+07  8.94427E-01 -1.00000E+00  3.67622E-01
      -1    -1     0     0     0   502  0.000000000E+00  0.000000000E+00  8.687152776E+01  8.687152776E+01  0.000000000E+00  0.00000E+00  9.000E+00
      21    -1     0     0   502   501  0.000000000E+00  0.000000000E+00 -1.923113269E-02  1.923113269E-02  0.000000000E+00  0.00000E+00  9.000E+00
      23     2     1     2     0     0 -5.392659122E-01  7.453789004E-01  3.200496873E+01  3.203571560E+01  1.059553214E+00  0.00000E+00  9.000E+00
      11     1     3     3     0     0  2.475916014E-01  1.988335103E-01  3.423786017E+00  3.438480379E+00  5.110000000E-04  0.00000E+00  9.000E+00
     -11     1     3     3     0     0 -7.868575136E-01  5.465453902E-01  2.858118271E+01  2.859723522E+01  5.110000000E-04  0.00000E+00  9.000E+00
      -1     1     1     2     0   501  5.392659122E-01 -7.453789004E-01  5.484732789E+01  5.485504329E+01  0.000000000E+00  0.00000E+00  9.000E+00
#rwgt            1           9  -522499.56238068698                3    15880547           0
<weights>
-.11145E+08
-.12514E+08
-.95920E+07
-.15219E+08
-.76860E+07
-.91648E+07
-.13909E+08
-.11181E+08
-.11110E+08
-.10841E+08
-.10842E+08
-.10969E+08
-.11022E+08
-.10863E+08
-.10851E+08
-.11223E+08
-.11195E+08
-.11435E+08
-.11470E+08
-.11460E+08
-.11413E+08
-.11468E+08
-.11491E+08
-.11370E+08
-.11327E+08
-.11279E+08
-.11296E+08
-.11405E+08
-.11347E+08
-.11442E+08
-.11480E+08
-.11174E+08
-.11217E+08
-.11140E+08
-.11172E+08
-.11216E+08
-.11092E+08
-.11096E+08
-.11124E+08
-.11157E+08
-.11136E+08
-.11181E+08
-.11109E+08
-.11477E+08
-.10839E+08
</weights>
</event>
<event>
      7  10001  1.11453E+07  2.29023E+00 -1.00000E+00  3.30550E-01
      21    -1     0     0   502   501  0.000000000E+00  0.000000000E+00  2.115464816E+01  2.115464816E+01  0.000000000E+00  0.00000E+00  9.000E+00
      21    -1     0     0   511   502  0.000000000E+00  0.000000000E+00 -7.359501401E-01  7.359501401E-01  0.000000000E+00  0.00000E+00  9.000E+00
      23     2     1     2     0     0 -1.382764672E+00  1.150935914E+00  1.302482736E+01  1.322311498E+01  1.402836588E+00  0.00000E+00  9.000E+00
      11     1     3     3     0     0 -8.130284346E-01  9.865599274E-01  4.510635900E+00  4.688299501E+00  5.110000000E-04  0.00000E+00  9.000E+00
     -11     1     3     3     0     0 -5.697362371E-01  1.643759865E-01  8.514191460E+00  8.534815483E+00  5.110000000E-04  0.00000E+00  9.000E+00
      -4     1     1     2     0   501 -6.923524110E-01 -2.119987913E+00  3.789348120E+00  4.396914803E+00  0.000000000E+00  0.00000E+00  9.000E+00
       4     1     1     2   511     0  2.075117083E+00  9.690519988E-01  3.604522536E+00  4.270568510E+00  0.000000000E+00  0.00000E+00  9.000E+00
#rwgt            1          12   221785.20211246825                3    15881150           0
<weights>
0.11105E+08
0.13257E+08
0.96556E+07
0.12449E+08
0.94714E+07
0.11563E+08
0.11022E+08
0.11145E+08
0.11061E+08
0.10736E+08
0.10708E+08
0.10896E+08
0.10939E+08
0.10747E+08
0.10721E+08
0.11198E+08
0.11198E+08
0.11494E+08
0.11513E+08
0.11506E+08
0.11463E+08
0.11538E+08
0.11548E+08
0.11391E+08
0.11329E+08
0.11298E+08
0.11189E+08
0.11471E+08
0.11372E+08
0.11521E+08
0.11549E+08
0.11165E+08
0.11177E+08
0.11088E+08
0.11153E+08
0.11182E+08
0.11047E+08
0.11160E+08
0.10970E+08
0.11146E+08
0.11070E+08
0.11148E+08
0.11059E+08
0.11532E+08
0.10715E+08
</weights>
</event>
<event>
      7  10001  1.11453E+07  8.94427E-01 -1.00000E+00  6.07649E-01
      21    -1     0     0   501   511  0.000000000E+00  0.000000000E+00  5.666728145E-01  5.666728145E-01  0.000000000E+00  0.00000E+00  9.000E+00
      -5    -1     0     0     0   502  0.000000000E+00  0.000000000E+00 -4.915228109E+01  4.915228109E+01  0.000000000E+00  0.00000E+00  9.000E+00
      23     2     1     2     0     0  3.160347130E-01 -9.160153583E-01 -4.785572496E+01  4.787724580E+01  1.058911032E+00  0.00000E+00  9.000E+00
      11     1     3     3     0     0 -5.035141923E-02 -5.082767491E-01 -7.312960586E+00  7.330775764E+00  5.110000000E-04  0.00000E+00  9.000E+00
     -11     1     3     3     0     0  3.663861322E-01 -4.077386092E-01 -4.054276437E+01  4.054647004E+01  5.110000000E-04  0.00000E+00  9.000E+00
      21     1     1     2   501   502 -3.924061679E-01  7.751599857E-01  2.054211929E-01  8.927785115E-01  3.632683364E-07  0.00000E+00  9.000E+00
      -5     1     1     2     0   511  7.637145498E-02  1.408553726E-01 -9.353045096E-01  9.489295869E-01  0.000000000E+00  0.00000E+00  9.000E+00
#rwgt            2         152   30388.870708984243                3    15891822           0
<weights>
0.11145E+08
0.11814E+08
0.99739E+07
0.14358E+08
0.79916E+07
0.91702E+07
0.13910E+08
0.11200E+08
0.11091E+08
0.11048E+08
0.11108E+08
0.11021E+08
0.11214E+08
0.11109E+08
0.11118E+08
0.11168E+08
0.11087E+08
0.11165E+08
0.11138E+08
0.11132E+08
0.11169E+08
0.11155E+08
0.11154E+08
0.11124E+08
0.11194E+08
0.11189E+08
0.11102E+08
0.11154E+08
0.11103E+08
0.11112E+08
0.11156E+08
0.11098E+08
0.11198E+08
0.11159E+08
0.11128E+08
0.11258E+08
0.11042E+08
0.10870E+08
0.11456E+08
0.11057E+08
0.11227E+08
0.11115E+08
0.11178E+08
0.11193E+08
0.11086E+08
</weights>
</event>
<event>
      6  10001 -1.11453E+07  8.94427E-01 -1.00000E+00  2.12020E-01
       4    -1     0     0   501     0  0.000000000E+00  0.000000000E+00  3.754458030E-03  3.754458030E-03  0.000000000E+00  0.00000E+00  9.000E+00
      -4    -1     0     0     0   502  0.000000000E+00  0.000000000E+00 -4.527855102E+02  4.527855102E+02  0.000000000E+00  0.00000E+00  9.000E+00
      23     2     1     2     0     0 -3.492355755E-01  5.105040809E-02 -4.056796832E+02  4.056858698E+02  2.212465435E+00  0.00000E+00  9.000E+00
      11     1     3     3     0     0 -1.148745155E+00 -5.088556387E-01 -2.111716922E+02  2.111754298E+02  5.110000000E-04  0.00000E+00  9.000E+00
     -11     1     3     3     0     0  7.995095799E-01  5.599060468E-01 -1.945079910E+02  1.945104400E+02  5.110000000E-04  0.00000E+00  9.000E+00
      21     1     1     2   501   502  3.492355755E-01 -5.105040809E-02 -4.710207252E+01  4.710339486E+01  9.536743164E-07  0.00000E+00  9.000E+00
#rwgt            1          27  -29134.181669141701                3    15892605           0
<weights>
-.11145E+08
-.13063E+08
-.89869E+07
-.15877E+08
-.72008E+07
-.91702E+07
-.13910E+08
-.10647E+08
-.11646E+08
-.12435E+08
-.11716E+08
-.11361E+08
-.11962E+08
-.11859E+08
-.11893E+08
-.10916E+08
-.11255E+08
-.10428E+08
-.10592E+08
-.10617E+08
-.10464E+08
-.10395E+08
-.10467E+08
-.11163E+08
-.10228E+08
-.10522E+08
-.11416E+08
-.10672E+08
-.10788E+08
-.10683E+08
-.10394E+08
-.11489E+08
-.10572E+08
-.10915E+08
-.11393E+08
-.10665E+08
-.11580E+08
-.12680E+08
-.96772E+07
-.10883E+08
-.11397E+08
-.10926E+08
-.11381E+08
-.10245E+08
-.12059E+08
</weights>
</event>
<event>
      7  10001  1.11453E+07  3.04636E+00 -1.00000E+00  2.90363E-01
       2    -1     0     0   501     0  0.000000000E+00  0.000000000E+00  3.348007411E+02  3.348007411E+02  0.000000000E+00  0.00000E+00  9.000E+00
      21    -1     0     0   502   511  0.000000000E+00  0.000000000E+00 -4.433478540E+00  4.433478540E+00  0.000000000E+00  0.00000E+00  9.000E+00
      23     2     1     2     0     0  3.416975505E+00 -2.130077387E+00  1.402656940E+02  1.404207831E+02  5.226708002E+00  0.00000E+00  9.000E+00
      11     1     3     3     0     0  3.548203905E+00 -1.110277489E-01  1.203990776E+02  1.204514008E+02  5.110000000E-04  0.00000E+00  9.000E+00
     -11     1     3     3     0     0 -1.312283999E-01 -2.019049638E+00  1.986661644E+01  1.996938235E+01  5.110000000E-04  0.00000E+00  9.000E+00
       2     1     1     2   502     0 -1.153103969E+00  9.164202780E-02  1.939229407E+02  1.939263906E+02  0.000000000E+00  0.00000E+00  9.000E+00
      21     1     1     2   501   511 -2.263871536E+00  2.038435360E+00 -3.821372100E+00  4.887045914E+00  5.230286352E-07  0.00000E+00  9.000E+00
#rwgt            1          24   739057.67958301294                3    15893053           0
<weights>
0.11145E+08
0.13032E+08
0.90186E+07
0.12719E+08
0.93851E+07
0.11341E+08
0.10578E+08
0.11149E+08
0.11144E+08
0.10775E+08
0.10740E+08
0.10943E+08
0.10965E+08
0.10783E+08
0.10754E+08
0.11233E+08
0.11249E+08
0.11531E+08
0.11591E+08
0.11574E+08
0.11503E+08
0.11588E+08
0.11596E+08
0.11517E+08
0.11333E+08
0.11304E+08
0.11491E+08
0.11509E+08
0.11436E+08
0.11573E+08
0.11600E+08
0.11207E+08
0.11220E+08
0.11132E+08
0.11192E+08
0.11189E+08
0.11125E+08
0.11222E+08
0.10994E+08
0.11189E+08
0.11108E+08
0.11198E+08
0.11090E+08
0.11579E+08
0.10750E+08
</weights>
</event>
<event>
      6  10001 -1.11453E+07  8.94427E-01 -1.00000E+00  1.69454E-01
      21    -1     0     0   502   501  0.000000000E+00  0.000000000E+00  1.688824635E-02  1.688824635E-02  0.000000000E+00  0.00000E+00  9.000E+00
      -2    -1     0     0     0   502  0.000000000E+00  0.000000000E+00 -3.997709633E+01  3.997709633E+01  0.000000000E+00  0.00000E+00  9.000E+00
      23     2     1     2     0     0 -3.129002524E-01 -9.201434739E-02 -3.700773285E+01  3.702354972E+01  1.031780133E+00  0.00000E+00  9.000E+00
      11     1     3     3     0     0 -1.718132769E-01  2.448704597E-01 -3.225192990E+00  3.239035571E+00  5.110000000E-04  0.00000E+00  9.000E+00
     -11     1     3     3     0     0 -1.410869755E-01 -3.368848071E-01 -3.378253986E+01  3.378451415E+01  5.110000000E-04  0.00000E+00  9.000E+00
      -2     1     1     2     0   501  3.129002524E-01  9.201434739E-02 -2.952475233E+00  2.970434851E+00  0.000000000E+00  0.00000E+00  9.000E+00
#rwgt            1          14  -4466547.1224999595                3    15941154           0
<weights>
-.11145E+08
-.12641E+08
-.95208E+07
-.15363E+08
-.76286E+07
-.91702E+07
-.13910E+08
-.11224E+08
-.11066E+08
-.10984E+08
-.11050E+08
-.11035E+08
-.11085E+08
-.11039E+08
-.11050E+08
-.11098E+08
-.11223E+08
-.11258E+08
-.11194E+08
-.11171E+08
-.11266E+08
-.11226E+08
-.11255E+08
-.11193E+08
-.11228E+08
-.11275E+08
-.11059E+08
-.11227E+08
-.11079E+08
-.11188E+08
-.11231E+08
-.11083E+08
-.11234E+08
-.11247E+08
-.11048E+08
-.11058E+08
-.11231E+08
-.10900E+08
-.11390E+08
-.11102E+08
-.11175E+08
-.11239E+08
-.11045E+08
-.11262E+08
-.11027E+08
</weights>
</event>
<event>
      7  10001  1.11453E+07  2.39644E+00 -1.00000E+00  3.23415E-01
      21    -1     0     0   502   501  0.000000000E+00  0.000000000E+00  3.554573052E-02  3.554573052E-02  0.000000000E+00  0.00000E+00  9.000E+00
       2    -1     0     0   501     0  0.000000000E+00  0.000000000E+00 -2.578661000E+02  2.578661000E+02  0.000000000E+00  0.00000E+00  9.000E+00
      23     2     1     2     0     0  6.262710369E-01  2.358564984E+00 -1.294298751E+02  1.294649844E+02  1.770471124E+00  0.00000E+00  9.000E+00
      11     1     3     3     0     0  4.148051350E-01 -1.785538160E-01 -1.502693523E+01  1.503371968E+01  5.110000000E-04  0.00000E+00  9.000E+00
     -11     1     3     3     0     0  2.114659019E-01  2.537118800E+00 -1.144029399E+02  1.144312647E+02  5.110000000E-04  0.00000E+00  9.000E+00
       2     1     1     2   511     0 -8.574570481E-01 -4.967244399E-01 -2.614527610E+01  2.616404842E+01  0.000000000E+00  0.00000E+00  9.000E+00
      21     1     1     2   502   511  2.311860112E-01 -1.861840544E+00 -1.022554031E+02  1.022726130E+02  1.348699152E-06  0.00000E+00  9.000E+00
#rwgt            1          17   3363839.4172848295                3    15943960           0
<weights>
0.11145E+08
0.12920E+08
0.92756E+07
0.11867E+08
0.10024E+08
0.11803E+08
0.98682E+07
0.11132E+08
0.11158E+08
0.11159E+08
0.11161E+08
0.11088E+08
0.11206E+08
0.11160E+08
0.11159E+08
0.11362E+08
0.10817E+08
0.11267E+08
0.10934E+08
0.10911E+08
0.11277E+08
0.11111E+08
0.11156E+08
0.11178E+08
0.11069E+08
0.11134E+08
0.11142E+08
0.11017E+08
0.11233E+08
0.11106E+08
0.11152E+08
0.11035E+08
0.11251E+08
0.11242E+08
0.11009E+08
0.11146E+08
0.11141E+08
0.11162E+08
0.11127E+08
0.11170E+08
0.11120E+08
0.11166E+08
0.11123E+08
0.11129E+08
0.11161E+08
</weights>
</event>
<event>
      6  10001 -1.11453E+07  8.94427E-01 -1.00000E+00  3.01897E-01
      21    -1     0     0   502   501  0.000000000E+00  0.000000000E+00  5.745094286E-03  5.745094286E-03  0.000000000E+00  0.00000E+00  9.000E+00
       2    -1     0     0   501     0  0.000000000E+00  0.000000000E+00 -5.227666835E+02  5.227666835E+02  0.000000000E+00  0.00000E+00  9.000E+00
      23     2     1     2     0     0 -6.019549685E-01  4.766358220E-01 -1.347218267E+02  1.347325572E+02  1.517189850E+00  0.00000E+00  9.000E+00
      11     1     3     3     0     0 -2.851806848E-01 -8.877114893E-03 -1.185499703E+02  1.185503136E+02  5.110000000E-04  0.00000E+00  9.000E+00
     -11     1     3     3     0     0 -3.167742837E-01  4.855129369E-01 -1.617185641E+01  1.618224363E+01  5.110000000E-04  0.00000E+00  9.000E+00
       2     1     1     2   502     0  6.019549685E-01 -4.766358220E-01 -3.880391118E+02  3.880398714E+02  0.000000000E+00  0.00000E+00  9.000E+00
#rwgt            1          17  -5275741.9659674531                3    15953532           0
<weights>
-.11145E+08
-.12246E+08
-.97483E+07
-.14884E+08
-.78109E+07
-.91702E+07
-.13910E+08
-.11131E+08
-.11159E+08
-.11164E+08
-.11149E+08
-.10972E+08
-.11341E+08
-.11156E+08
-.11151E+08
-.11248E+08
-.10987E+08
-.11496E+08
-.10653E+08
-.10582E+08
-.11539E+08
-.11110E+08
-.11172E+08
-.11023E+08
-.11230E+08
-.11382E+08
-.10998E+08
-.10711E+08
-.11629E+08
-.11063E+08
-.11194E+08
-.11034E+08
-.11254E+08
-.11557E+08
-.10643E+08
-.11089E+08
-.11196E+08
-.11142E+08
-.11156E+08
-.11267E+08
-.11037E+08
-.11131E+08
-.11160E+08
-.11134E+08
-.11157E+08
</weights>
</event>
<event>
      7  10001  1.11453E+07  9.93676E-01 -1.00000E+00  5.65039E-01
       2    -1     0     0   502     0  0.000000000E+00  0.000000000E+00  4.544204086E+01  4.544204086E+01  0.000000000E+00  0.00000E+00  9.000E+00
       2    -1     0     0   501     0  0.000000000E+00  0.000000000E+00 -1.146225859E+00  1.146225859E+00  0.000000000E+00  0.00000E+00  9.000E+00
      23     2     1     2     0     0  8.418739002E-01 -3.804542679E-01  3.855756247E+01  3.862254054E+01  2.039979723E+00  0.00000E+00  9.000E+00
      11     1     3     3     0     0  6.030549045E-01  5.415361175E-01  3.020170797E+01  3.021258183E+01  5.110000000E-04  0.00000E+00  9.000E+00
     -11     1     3     3     0     0  2.388189957E-01 -9.219903854E-01  8.355854502E+00  8.409958710E+00  5.110000000E-04  0.00000E+00  9.000E+00
       2     1     1     2   502     0 -1.549383581E+00  1.078180349E+00 -2.423809470E-01  1.903105585E+00  0.000000000E+00  0.00000E+00  9.000E+00
       2     1     1     2   501     0  7.075096803E-01 -6.977260810E-01  5.980633481E+00  6.062620594E+00  0.000000000E+00  0.00000E+00  9.000E+00
#rwgt            2         253   77268.401728141675                3    15953774           0
<weights>
0.11145E+08
0.10837E+08
0.11356E+08
0.13171E+08
0.90988E+07
0.91702E+07
0.13910E+08
0.11091E+08
0.11206E+08
0.10848E+08
0.10832E+08
0.10986E+08
0.10995E+08
0.10863E+08
0.10844E+08
0.11182E+08
0.11264E+08
0.11445E+08
0.11462E+08
0.11453E+08
0.11424E+08
0.11481E+08
0.11488E+08
0.11362E+08
0.11321E+08
0.11333E+08
0.11119E+08
0.11456E+08
0.11290E+08
0.11463E+08
0.11480E+08
0.11163E+08
0.11230E+08
0.11133E+08
0.11186E+08
0.11105E+08
0.11210E+08
0.11120E+08
0.11095E+08
0.11156E+08
0.11135E+08
0.11201E+08
0.11086E+08
0.11480E+08
0.10837E+08
</weights>
</event>
<event>
      7  10001  1.11453E+07  1.23234E+00 -1.00000E+00  4.87887E-01
      21    -1     0     0   511   501  0.000000000E+00  0.000000000E+00  1.751372281E+02  1.751372281E+02  0.000000000E+00  0.00000E+00  9.000E+00
      -2    -1     0     0     0   502  0.000000000E+00  0.000000000E+00 -3.034929545E+00  3.034929545E+00  0.000000000E+00  0.00000E+00  9.000E+00
      23     2     1     2     0     0  7.349151308E-01  8.010091789E-01 -2.012406627E+00  3.699713327E+00  2.907985955E+00  0.00000E+00  9.000E+00
      11     1     3     3     0     0  2.319937563E-01  7.160931142E-01 -2.722941514E+00  2.825070123E+00  5.110000000E-04  0.00000E+00  9.000E+00
     -11     1     3     3     0     0  5.029213745E-01  8.491606470E-02  7.105348873E-01  8.746432039E-01  5.110000000E-04  0.00000E+00  9.000E+00
      -2     1     1     2     0   501  4.515166132E-01 -4.677920889E-01  4.214140297E-01  7.747815660E-01  0.000000000E+00  0.00000E+00  9.000E+00
      21     1     1     2   511   502 -1.186431744E+00 -3.332170899E-01  1.736932911E+02  1.736976627E+02  1.907348633E-06  0.00000E+00  9.000E+00
#rwgt            1          14   807905.27262904390                3    15954956           0
<weights>
0.11145E+08
0.15508E+08
0.71089E+07
0.12098E+08
0.97148E+07
0.13548E+08
0.71888E+07
0.10828E+08
0.11470E+08
0.10767E+08
0.10671E+08
0.10982E+08
0.10846E+08
0.10752E+08
0.10694E+08
0.11085E+08
0.11510E+08
0.11648E+08
0.11547E+08
0.11515E+08
0.11631E+08
0.11666E+08
0.11633E+08
0.11586E+08
0.11276E+08
0.11556E+08
0.10987E+08
0.11679E+08
0.11285E+08
0.11676E+08
0.11639E+08
0.11127E+08
0.11320E+08
0.11175E+08
0.11164E+08
0.10667E+08
0.11671E+08
0.11295E+08
0.10881E+08
0.11204E+08
0.11084E+08
0.11306E+08
0.10974E+08
0.11623E+08
0.10714E+08
</weights>
</event>
<event>
      7  10001  1.11453E+07  1.38108E+00 -1.00000E+00  4.51912E-01
       2    -1     0     0   511     0  0.000000000E+00  0.000000000E+00  5.233634138E+00  5.233634138E+00  0.000000000E+00  0.00000E+00  9.000E+00
      -2    -1     0     0     0   502  0.000000000E+00  0.000000000E+00 -1.059579022E+00  1.059579022E+00  0.000000000E+00  0.00000E+00  9.000E+00
      23     2     1     2     0     0  8.609025079E-01 -2.361506007E-01  1.823296120E+00  2.927257625E+00  2.108911622E+00  0.00000E+00  9.000E+00
      11     1     3     3     0     0  6.908850904E-01  2.917173366E-01  2.154513413E+00  2.281304347E+00  5.110000000E-04  0.00000E+00  9.000E+00
     -11     1     3     3     0     0  1.700174175E-01 -5.278679373E-01 -3.312172937E-01  6.459532787E-01  5.110000000E-04  0.00000E+00  9.000E+00
      21     1     1     2   501   502 -8.820386214E-02 -9.085456393E-01  4.535112440E-01  1.019268144E+00  2.933296514E-08  0.00000E+00  9.000E+00
      21     1     1     2   511   501 -7.726986457E-01  1.144696240E+00  1.897247752E+00  2.346687391E+00  4.214684851E-08  0.00000E+00  9.000E+00
#rwgt            1          23   280372.18520704162                3    15973008           0
<weights>
0.11145E+08
0.14495E+08
0.85562E+07
0.65920E+07
0.13302E+08
0.16237E+08
0.30612E+07
0.10555E+08
0.11815E+08
0.10735E+08
0.10603E+08
0.10978E+08
0.10803E+08
0.10710E+08
0.10630E+08
0.11095E+08
0.11537E+08
0.11706E+08
0.11617E+08
0.11580E+08
0.11685E+08
0.11749E+08
0.11683E+08
0.11726E+08
0.11221E+08
0.11529E+08
0.11132E+08
0.11742E+08
0.11358E+08
0.11770E+08
0.11711E+08
0.11143E+08
0.11330E+08
0.11149E+08
0.11200E+08
0.10595E+08
0.11770E+08
0.11408E+08
0.10809E+08
0.11220E+08
0.11071E+08
0.11312E+08
0.10968E+08
0.11685E+08
0.10660E+08
</weights>
</event>
<event>
      6  10001 -1.11453E+07  8.94427E-01 -1.00000E+00  2.03106E-01
      -2    -1     0     0     0   502  0.000000000E+00  0.000000000E+00  8.551608968E-03  8.551608968E-03  0.000000000E+00  0.00000E+00  9.000E+00
       2    -1     0     0   501     0  0.000000000E+00  0.000000000E+00 -5.366264290E+01  5.366264290E+01  0.000000000E+00  0.00000E+00  9.000E+00
      23     2     1     2     0     0 -1.775895525E-01 -2.060924181E-01 -3.726764302E+01  3.728248806E+01  1.016212349E+00  0.00000E+00  9.000E+00
      11     1     3     3     0     0  2.304895982E-01  3.127468252E-01 -1.528543982E+01  1.529037628E+01  5.110000000E-04  0.00000E+00  9.000E+00
     -11     1     3     3     0     0 -4.080791507E-01 -5.188392434E-01 -2.198220320E+01  2.199211178E+01  5.110000000E-04  0.00000E+00  9.000E+00
      21     1     1     2   501   502  1.775895525E-01  2.060924181E-01 -1.638644827E+01  1.638870645E+01  2.384185791E-07  0.00000E+00  9.000E+00
#rwgt            1           8  -241038.15409459744                3    15975310           0
<weights>
-.11145E+08
-.13116E+08
-.90685E+07
-.15941E+08
-.72662E+07
-.91702E+07
-.13910E+08
-.11183E+08
-.11108E+08
-.11086E+08
-.11124E+08
-.11153E+08
-.11067E+08
-.11117E+08
-.11123E+08
-.11110E+08
-.11175E+08
-.11072E+08
-.11281E+08
-.11293E+08
-.11063E+08
-.11165E+08
-.11159E+08
-.11236E+08
-.11087E+08
-.11104E+08
-.11161E+08
-.11299E+08
-.10932E+08
-.11166E+08
-.11144E+08
-.11142E+08
-.11152E+08
-.11068E+08
-.11251E+08
-.11123E+08
-.11165E+08
-.11042E+08
-.11257E+08
-.11080E+08
-.11198E+08
-.11205E+08
-.11081E+08
-.11176E+08
-.11111E+08
</weights>
</event>
<event>
      6  10001 -1.11453E+07  8.94427E-01 -1.00000E+00  2.92232E-01
      21    -1     0     0   502   501  0.000000000E+00  0.000000000E+00  9.311156799E-03  9.311156799E-03  0.000000000E+00  0.00000E+00  9.000E+00
       2    -1     0     0   501     0  0.000000000E+00  0.000000000E+00 -3.524352426E+02  3.524352426E+02  0.000000000E+00  0.00000E+00  9.000E+00
      23     2     1     2     0     0  7.202162963E-02 -1.256832806E+00 -2.911386964E+02  2.911443907E+02  1.315620953E+00  0.00000E+00  9.000E+00
      11     1     3     3     0     0  4.002090380E-01 -8.798362467E-01 -9.220196264E+01  9.220702899E+01  5.110000000E-04  0.00000E+00  9.000E+00
     -11     1     3     3     0     0 -3.281874083E-01 -3.769965592E-01 -1.989367338E+02  1.989373617E+02  5.110000000E-04  0.00000E+00  9.000E+00
       2     1     1     2   502     0 -7.202162963E-02  1.256832806E+00 -6.128723500E+01  6.130016305E+01  0.000000000E+00  0.00000E+00  9.000E+00
#rwgt            1          17  -8778009.4285354838                3    15977500           0
<weights>
-.11145E+08
-.12155E+08
-.99465E+07
-.14772E+08
-.79696E+07
-.91702E+07
-.13910E+08
-.11127E+08
-.11162E+08
-.11169E+08
-.11158E+08
-.11032E+08
-.11278E+08
-.11162E+08
-.11159E+08
-.11335E+08
-.10860E+08
-.11379E+08
-.10788E+08
-.10741E+08
-.11405E+08
-.11105E+08
-.11162E+08
-.11105E+08
-.11140E+08
-.11242E+08
-.11079E+08
-.10865E+08
-.11424E+08
-.11082E+08
-.11169E+08
-.11023E+08
-.11263E+08
-.11390E+08
-.10835E+08
-.11118E+08
-.11169E+08
-.11162E+08
-.11132E+08
-.11215E+08
-.11081E+08
-.11145E+08
-.11145E+08
-.11126E+08
-.11164E+08
</weights>
</event>
<event>
      6  10001 -1.11453E+07  8.94427E-01 -1.00000E+00  5.35504E-01
      21    -1     0     0   502   501  0.000000000E+00  0.000000000E+00  1.446355458E-02  1.446355458E-02  0.000000000E+00  0.00000E+00  9.000E+00
       2    -1     0     0   501     0  0.000000000E+00  0.000000000E+00 -1.311457119E+02  1.311457119E+02  0.000000000E+00  0.00000E+00  9.000E+00
      23     2     1     2     0     0 -8.783773470E-01 -1.749707357E-01 -1.054257422E+02  1.054390712E+02  1.417194640E+00  0.00000E+00  9.000E+00
      11     1     3     3     0     0 -1.985996475E-01  3.509798640E-01 -8.539656158E+00  8.549172840E+00  5.110000000E-04  0.00000E+00  9.000E+00
     -11     1     3     3     0     0 -6.797776995E-01 -5.259505998E-01 -9.688608609E+01  9.688989833E+01  5.110000000E-04  0.00000E+00  9.000E+00
       2     1     1     2   502     0  8.783773470E-01  1.749707357E-01 -2.570550607E+01  2.572110425E+01  0.000000000E+00  0.00000E+00  9.000E+00
#rwgt            1          17  -12367344.437494591                3    15978160           0
<weights>
-.11145E+08
-.13621E+08
-.82287E+07
-.16555E+08
-.65933E+07
-.91702E+07
-.13910E+08
-.11141E+08
-.11148E+08
-.11165E+08
-.11172E+08
-.11144E+08
-.11148E+08
-.11173E+08
-.11172E+08
-.11231E+08
-.10987E+08
-.11130E+08
-.11085E+08
-.11083E+08
-.11129E+08
-.11109E+08
-.11118E+08
-.11218E+08
-.11022E+08
-.11077E+08
-.11173E+08
-.11148E+08
-.11051E+08
-.11117E+08
-.11115E+08
-.11104E+08
-.11174E+08
-.11134E+08
-.11152E+08
-.11139E+08
-.11146E+08
-.11151E+08
-.11144E+08
-.11120E+08
-.11163E+08
-.11184E+08
-.11104E+08
-.11116E+08
-.11171E+08
</weights>
</event>
<event>
      6  10001 -1.11453E+07  8.94427E-01 -1.00000E+00  2.22183E-01
       3    -1     0     0   501     0  0.000000000E+00  0.000000000E+00  3.693525517E+01  3.693525517E+01  0.000000000E+00  0.00000E+00  9.000E+00
      21    -1     0     0   502   501  0.000000000E+00  0.000000000E+00 -1.955497902E-02  1.955497902E-02  0.000000000E+00  0.00000E+00  9.000E+00
      23     2     1     2     0     0  6.633679499E-02 -3.714383276E-01  3.166844449E+01  3.169400609E+01  1.215433396E+00  0.00000E+00  9.000E+00
      11     1     3     3     0     0  4.076153114E-01 -2.152569692E-01  2.845265140E+01  2.845638518E+01  5.110000000E-04  0.00000E+00  9.000E+00
     -11     1     3     3     0     0 -3.412785164E-01 -1.561813584E-01  3.215793094E+00  3.237620906E+00  5.110000000E-04  0.00000E+00  9.000E+00
       3     1     1     2   502     0 -6.633679499E-02  3.714383276E-01  5.247255699E+00  5.260804061E+00  0.000000000E+00  0.00000E+00  9.000E+00
#rwgt            1          26  -1002142.7854534710                3    15979323           0
<weights>
-.11145E+08
-.12952E+08
-.91932E+07
-.15751E+08
-.73663E+07
-.91649E+07
-.13909E+08
-.11172E+08
-.11119E+08
-.10824E+08
-.10815E+08
-.10962E+08
-.11007E+08
-.10842E+08
-.10825E+08
-.11226E+08
-.11210E+08
-.11461E+08
-.11502E+08
-.11490E+08
-.11438E+08
-.11500E+08
-.11519E+08
-.11409E+08
-.11329E+08
-.11287E+08
-.11347E+08
-.11434E+08
-.11371E+08
-.11477E+08
-.11512E+08
-.11183E+08
-.11217E+08
-.11138E+08
-.11177E+08
-.11209E+08
-.11101E+08
-.11131E+08
-.11085E+08
-.11166E+08
-.11128E+08
-.11185E+08
-.11104E+08
-.11504E+08
-.10815E+08
</weights>
</event>
<event>
      7  10001  1.11453E+07  1.68385E+00 -1.00000E+00  3.89205E-01
       4    -1     0     0   501     0  0.000000000E+00  0.000000000E+00  2.823325001E+01  2.823325001E+01  0.000000000E+00  0.00000E+00  9.000E+00
      21    -1     0     0   502   511  0.000000000E+00  0.000000000E+00 -3.180951993E+00  3.180951993E+00  0.000000000E+00  0.00000E+00  9.000E+00
      23     2     1     2     0     0  5.372076528E-01  1.534823208E+00  1.104400277E+01  1.124221808E+01  1.331613970E+00  0.00000E+00  9.000E+00
      11     1     3     3     0     0  6.694186359E-01  1.641150002E+00  1.080330184E+01  1.094773152E+01  5.110000000E-04  0.00000E+00  9.000E+00
     -11     1     3     3     0     0 -1.322109830E-01 -1.063267939E-01  2.407009374E-01  2.944865592E-01  5.110000000E-04  0.00000E+00  9.000E+00
       4     1     1     2   502     0 -1.897566451E+00 -5.424696254E-01  1.679797199E+01  1.691351219E+01  0.000000000E+00  0.00000E+00  9.000E+00
      21     1     1     2   501   511  1.360358798E+00 -9.923535827E-01 -2.789676743E+00  3.258471732E+00  6.664001875E-08  0.00000E+00  9.000E+00
#rwgt            1          28   304009.58810126031                3    15980521           0
<weights>
0.11145E+08
0.16033E+08
0.65150E+07
0.13098E+08
0.88438E+07
0.13236E+08
0.76685E+07
0.11141E+08
0.11152E+08
0.10736E+08
0.10683E+08
0.10927E+08
0.10935E+08
0.10738E+08
0.10700E+08
0.11241E+08
0.11276E+08
0.11588E+08
0.11652E+08
0.11634E+08
0.11556E+08
0.11655E+08
0.11654E+08
0.11580E+08
0.11345E+08
0.11326E+08
0.11531E+08
0.11570E+08
0.11483E+08
0.11646E+08
0.11667E+08
0.11226E+08
0.11221E+08
0.11127E+08
0.11204E+08
0.11181E+08
0.11135E+08
0.11290E+08
0.10926E+08
0.11207E+08
0.11092E+08
0.11206E+08
0.11082E+08
0.11637E+08
0.10699E+08
</weights>
</event>
<event>
      7  10001  1.11453E+07  2.20277E+00 -1.00000E+00  3.36935E-01
       2    -1     0     0   502     0  0.000000000E+00  0.000000000E+00  3.590148637E+00  3.590148637E+00  0.000000000E+00  0.00000E+00  9.000E+00
      -2    -1     0     0     0   502  0.000000000E+00  0.000000000E+00 -1.900943738E+01  1.900943738E+01  0.000000000E+00  0.00000E+00  9.000E+00
      23     2     1     2     0     0 -3.640673575E-01 -1.048184135E-01 -5.383926475E+00  5.527592799E+00  1.193350711E+00  0.00000E+00  9.000E+00
      11     1     3     3     0     0 -1.653509515E-01 -4.468063817E-01 -4.792332030E+00  4.815955089E+00  5.110000000E-04  0.00000E+00  9.000E+00
     -11     1     3     3     0     0 -1.987164060E-01  3.419879682E-01 -5.915944452E-01  7.116377092E-01  5.110000000E-04  0.00000E+00  9.000E+00
      -2     1     1     2     0   501  1.617890462E+00 -1.706294100E+00 -1.309358882E+01  1.330304767E+01  0.000000000E+00  0.00000E+00  9.000E+00
       2     1     1     2   501     0 -1.253823105E+00  1.811112514E+00  3.058226551E+00  3.768945549E+00  0.000000000E+00  0.00000E+00  9.000E+00
#rwgt            1          14   318960.79477143253                3    16029291           0
<weights>
0.11145E+08
0.16423E+08
0.64778E+07
0.91732E+07
0.11487E+08
0.16103E+08
0.32675E+07
0.11133E+08
0.11146E+08
0.10690E+08
0.10674E+08
0.10962E+08
0.10799E+08
0.10693E+08
0.10679E+08
0.11043E+08
0.11558E+08
0.11653E+08
0.11608E+08
0.11566E+08
0.11643E+08
0.11646E+08
0.11721E+08
0.11508E+08
0.11410E+08
0.11648E+08
0.10918E+08
0.11669E+08
0.11222E+08
0.11626E+08
0.11642E+08
0.11074E+08
0.11370E+08
0.11262E+08
0.11069E+08
0.10672E+08
0.11640E+08
0.11047E+08
0.11042E+08
0.11202E+08
0.11078E+08
0.11361E+08
0.10915E+08
0.11652E+08
0.10684E+08
</weights>
</event>
<event>
      6  10001 -1.11453E+07  8.94427E-01 -1.00000E+00  2.93744E-01
      -2    -1     0     0     0   502  0.000000000E+00  0.000000000E+00  1.069238159E-02  1.069238159E-02  0.000000000E+00  0.00000E+00  9.000E+00
       2    -1     0     0   501     0  0.000000000E+00  0.000000000E+00 -7.170836630E+01  7.170836630E+01  0.000000000E+00  0.00000E+00  9.000E+00
      23     2     1     2     0     0 -3.221731704E-01  7.820807798E-02 -6.094162012E+01  6.095789679E+01  1.369016259E+00  0.00000E+00  9.000E+00
      11     1     3     3     0     0  4.167317837E-01 -7.465105538E-02 -8.234746342E+00  8.245622217E+00  5.110000000E-04  0.00000E+00  9.000E+00
     -11     1     3     3     0     0 -7.389049541E-01  1.528591334E-01 -5.270687378E+01  5.271227457E+01  5.110000000E-04  0.00000E+00  9.000E+00
      21     1     1     2   501   502  3.221731704E-01 -7.820807798E-02 -1.075605379E+01  1.076116189E+01  1.192092896E-07  0.00000E+00  9.000E+00
#rwgt            1           8  -1604908.7537188632                3    16035290           0
<weights>
-.11145E+08
-.12852E+08
-.93230E+07
-.15620E+08
-.74701E+07
-.91702E+07
-.13910E+08
-.11169E+08
-.11122E+08
-.11121E+08
-.11149E+08
-.11161E+08
-.11090E+08
-.11146E+08
-.11149E+08
-.11140E+08
-.11120E+08
-.11068E+08
-.11223E+08
-.11233E+08
-.11061E+08
-.11138E+08
-.11130E+08
-.11234E+08
-.11048E+08
-.11077E+08
-.11174E+08
-.11258E+08
-.10944E+08
-.11144E+08
-.11122E+08
-.11136E+08
-.11150E+08
-.11075E+08
-.11236E+08
-.11129E+08
-.11157E+08
-.11081E+08
-.11221E+08
-.11086E+08
-.11192E+08
-.11200E+08
-.11087E+08
-.11146E+08
-.11139E+08
</weights>
</event>
<event>
      6  10001 -1.11453E+07  8.94427E-01 -1.00000E+00  5.30495E-01
       2    -1     0     0   501     0  0.000000000E+00  0.000000000E+00  4.492425629E+02  4.492425629E+02  0.000000000E+00  0.00000E+00  9.000E+00
      21    -1     0     0   502   501  0.000000000E+00  0.000000000E+00 -2.817910159E-03  2.817910159E-03  0.000000000E+00  0.00000E+00  9.000E+00
      23     2     1     2     0     0  7.212726210E-02  6.925534182E-01  3.423912178E+02  3.423945848E+02  1.349400680E+00  0.00000E+00  9.000E+00
      11     1     3     3     0     0  3.598870187E-01  7.275128591E-01  1.032123244E+02  1.032155158E+02  5.110000000E-04  0.00000E+00  9.000E+00
     -11     1     3     3     0     0 -2.877597566E-01 -3.495944094E-02  2.391788934E+02  2.391790691E+02  5.110000000E-04  0.00000E+00  9.000E+00
       2     1     1     2   502     0 -7.212726210E-02 -6.925534182E-01  1.068485273E+02  1.068507960E+02  0.000000000E+00  0.00000E+00  9.000E+00
#rwgt            1          24  -20672720.375760261                3    16036906           0
<weights>
-.11145E+08
-.12547E+08
-.95417E+07
-.15261E+08
-.76457E+07
-.91632E+07
-.13909E+08
-.11188E+08
-.11102E+08
-.10868E+08
-.10883E+08
-.10980E+08
-.11043E+08
-.10896E+08
-.10889E+08
-.11219E+08
-.11174E+08
-.11395E+08
-.11423E+08
-.11414E+08
-.11377E+08
-.11420E+08
-.11448E+08
-.11323E+08
-.11319E+08
-.11263E+08
-.11254E+08
-.11362E+08
-.11314E+08
-.11390E+08
-.11433E+08
-.11160E+08
-.11216E+08
-.11145E+08
-.11163E+08
-.11223E+08
-.11084E+08
-.11050E+08
-.11181E+08
-.11144E+08
-.11147E+08
-.11175E+08
-.11115E+08
-.11437E+08
-.10874E+08
</weights>
</event>
<event>
      7  10001 -1.11453E+07  9.75858E-01 -1.00000E+00  5.72121E-01
      -1    -1     0     0     0   502  0.000000000E+00  0.000000000E+00  1.222473546E+00  1.222473546E+00  0.000000000E+00  0.00000E+00  9.000E+00
      21    -1     0     0   502   511  0.000000000E+00  0.000000000E+00 -1.052026449E+02  1.052026449E+02  0.000000000E+00  0.00000E+00  9.000E+00
      23     2     1     2     0     0  7.966447170E-01  6.544723005E-01  5.109620763E-01  1.666162961E+00  1.205006212E+00  0.00000E+00  9.000E+00
      11     1     3     3     0     0 -2.405448525E-02  6.643203664E-01  5.221863748E-01  8.453277699E-01  5.110000000E-04  0.00000E+00  9.000E+00
     -11     1     3     3     0     0  8.206992022E-01 -9.848065911E-03 -1.122429846E-02  8.208351911E-01  5.110000000E-04  0.00000E+00  9.000E+00
      -1     1     1     2     0   501  6.850731640E-02 -2.030177320E-01  4.444189728E-02  2.188253508E-01  0.000000000E+00  0.00000E+00  9.000E+00
      21     1     1     2   501   511 -8.651520334E-01 -4.514545685E-01 -1.045355753E+02  1.045401301E+02  1.348699152E-06  0.00000E+00  9.000E+00
#rwgt            1           9  -548967.29012400040                3    16041947           0
<weights>
-.11145E+08
-.99202E+07
-.11753E+08
-.17126E+08
-.66278E+07
-.59989E+07
-.18778E+08
-.11178E+08
-.11111E+08
-.11188E+08
-.11227E+08
-.11123E+08
-.11227E+08
-.11200E+08
-.11228E+08
-.11145E+08
-.11070E+08
-.11054E+08
-.11057E+08
-.11057E+08
-.11063E+08
-.11029E+08
-.11077E+08
-.11019E+08
-.11158E+08
-.11125E+08
-.11013E+08
-.11035E+08
-.11054E+08
-.11008E+08
-.11038E+08
-.11094E+08
-.11163E+08
-.11146E+08
-.11131E+08
-.11200E+08
-.11089E+08
-.10946E+08
-.11319E+08
-.11082E+08
-.11201E+08
-.11125E+08
-.11167E+08
-.11063E+08
-.11215E+08
</weights>
</event>
<event>
      6  10001  1.11453E+07  8.94427E-01 -1.00000E+00  6.02061E-01
       4    -1     0     0   501     0  0.000000000E+00  0.000000000E+00  3.705287896E+00  3.705287896E+00  0.000000000E+00  0.00000E+00  9.000E+00
      -4    -1     0     0     0   502  0.000000000E+00  0.000000000E+00 -3.977122563E+00  3.977122563E+00  0.000000000E+00  0.00000E+00  9.000E+00
      23     2     1     2     0     0 -5.363656167E-01 -1.986452672E-01  2.393986259E+00  4.955920183E+00  4.301491211E+00  0.00000E+00  9.000E+00
      11     1     3     3     0     0 -9.894080145E-01 -1.811696959E+00  3.760611388E-02  2.064603732E+00  5.110000000E-04  0.00000E+00  9.000E+00
     -11     1     3     3     0     0  4.530423979E-01  1.613051691E+00  2.356380145E+00  2.891316451E+00  5.110000000E-04  0.00000E+00  9.000E+00
      21     1     1     2   501   502  5.363656167E-01  1.986452672E-01 -2.665820925E+00  2.726490276E+00  0.000000000E+00  0.00000E+00  9.000E+00
#rwgt            1          27   490834.36441303184                3    16046843           0
<weights>
0.11145E+08
0.13210E+08
0.90700E+07
0.12857E+08
0.91281E+07
0.11225E+08
0.10755E+08
0.11211E+08
0.11075E+08
0.10770E+08
0.10752E+08
0.10925E+08
0.10995E+08
0.10783E+08
0.10764E+08
0.11238E+08
0.11242E+08
0.11537E+08
0.11541E+08
0.11539E+08
0.11506E+08
0.11571E+08
0.11594E+08
0.11367E+08
0.11418E+08
0.11399E+08
0.11074E+08
0.11522E+08
0.11382E+08
0.11547E+08
0.11583E+08
0.11198E+08
0.11222E+08
0.11126E+08
0.11193E+08
0.11262E+08
0.11048E+08
0.11140E+08
0.11034E+08
0.11181E+08
0.11116E+08
0.11178E+08
0.11111E+08
0.11572E+08
0.10754E+08
</weights>
</event>
<event>
      6  10001 -1.11453E+07  8.94427E-01 -1.00000E+00  5.77124E-01
       5    -1     0     0   501     0  0.000000000E+00  0.000000000E+00  8.115737089E+00  8.115737089E+00  0.000000000E+00  0.00000E+00  9.000E+00
      21    -1     0     0   502   501  0.000000000E+00  0.000000000E+00 -1.240631882E-01  1.240631882E-01  0.000000000E+00  0.00000E+00  9.000E+00
      23     2     1     2     0     0 -2.356294599E-01  2.435147906E-01  7.735744550E+00  7.815158630E+00  1.058366655E+00  0.00000E+00  9.000E+00
      11     1     3     3     0     0  2.161525537E-01  3.329365794E-01  1.215616457E+00  1.278785487E+00  5.110000000E-04  0.00000E+00  9.000E+00
     -11     1     3     3     0     0 -4.517820137E-01 -8.942178880E-02  6.520128094E+00  6.536373143E+00  5.110000000E-04  0.00000E+00  9.000E+00
       5     1     1     2   502     0  2.356294599E-01 -2.435147906E-01  2.559293504E-01  4.246416466E-01  0.000000000E+00  0.00000E+00  9.000E+00
#rwgt            1          30  -194335.82063871756                3    16049255           0
<weights>
-.11145E+08
-.13315E+08
-.78162E+07
-.20625E+08
-.42027E+07
-.65721E+07
-.17898E+08
-.11234E+08
-.11053E+08
-.10998E+08
-.11074E+08
-.11033E+08
-.11147E+08
-.11052E+08
-.11073E+08
-.11199E+08
-.11076E+08
-.11213E+08
-.11191E+08
-.11193E+08
-.11207E+08
-.11197E+08
-.11240E+08
-.11072E+08
-.11287E+08
-.11201E+08
-.10947E+08
-.11165E+08
-.11152E+08
-.11149E+08
-.11208E+08
-.11103E+08
-.11206E+08
-.11161E+08
-.11126E+08
-.11262E+08
-.11036E+08
-.10843E+08
-.11420E+08
-.11086E+08
-.11198E+08
-.11144E+08
-.11146E+08
-.11243E+08
-.11043E+08
</weights>
</event>
<event>
      6  10001 -1.11453E+07  8.94427E-01 -1.00000E+00  4.86835E-01
      21    -1     0     0   502   501  0.000000000E+00  0.000000000E+00  1.660261283E-02  1.660261283E-02  0.000000000E+00  0.00000E+00  9.000E+00
      -2    -1     0     0     0   502  0.000000000E+00  0.000000000E+00 -3.714437280E+02  3.714437280E+02  0.000000000E+00  0.00000E+00  9.000E+00
      23     2     1     2     0     0  9.823631563E-01 -1.243514000E-02 -3.514826306E+02  3.514916536E+02  2.318986387E+00  0.00000E+00  9.000E+00
      11     1     3     3     0     0  8.667895101E-01  9.317235529E-01 -2.773666321E+02  2.773695514E+02  5.110000000E-04  0.00000E+00  9.000E+00
     -11     1     3     3     0     0  1.155736462E-01 -9.441586929E-01 -7.411599850E+01  7.412210215E+01  5.110000000E-04  0.00000E+00  9.000E+00
      -2     1     1     2     0   501 -9.823631563E-01  1.243514000E-02 -1.994449480E+01  1.996867709E+01  0.000000000E+00  0.00000E+00  9.000E+00
#rwgt            1          14  -2001534.8161378352                3    16051127           0
<weights>
-.11145E+08
-.11923E+08
-.10172E+08
-.14491E+08
-.81507E+07
-.91702E+07
-.13910E+08
-.10924E+08
-.11358E+08
-.11438E+08
-.11349E+08
-.11152E+08
-.11300E+08
-.11338E+08
-.11363E+08
-.11028E+08
-.11209E+08
-.11010E+08
-.10903E+08
-.10888E+08
-.11028E+08
-.10915E+08
-.10979E+08
-.11081E+08
-.10980E+08
-.10938E+08
-.11214E+08
-.10943E+08
-.10978E+08
-.10980E+08
-.10961E+08
-.11357E+08
-.10864E+08
-.11322E+08
-.10976E+08
-.11353E+08
-.10942E+08
-.11588E+08
-.10690E+08
-.11155E+08
-.11118E+08
-.11327E+08
-.10950E+08
-.10893E+08
-.11396E+08
</weights>
</event>
<event>
      7  10001  1.11453E+07  3.14994E+00 -1.00000E+00  2.86305E-01
       2    -1     0     0   501     0  0.000000000E+00  0.000000000E+00  1.318467319E+02  1.318467319E+02  0.000000000E+00  0.00000E+00  9.000E+00
      21    -1     0     0   502   511  0.000000000E+00  0.000000000E+00 -1.790979183E+00  1.790979183E+00  0.000000000E+00  0.00000E+00  9.000E+00
      23     2     1     2     0     0 -2.626297506E+00 -3.903552192E-01  1.007548025E+02  1.007993916E+02  1.391876247E+00  0.00000E+00  9.000E+00
      11     1     3     3     0     0 -9.931693420E-01 -3.258538499E-01  6.368392898E+01  6.369250644E+01  5.110000000E-04  0.00000E+00  9.000E+00
     -11     1     3     3     0     0 -1.633128164E+00 -6.450136929E-02  3.707087347E+01  3.710688519E+01  5.110000000E-04  0.00000E+00  9.000E+00
       2     1     1     2   502     0  2.628225582E-01 -1.691982224E+00  2.962255498E+01  2.967200100E+01  0.000000000E+00  0.00000E+00  9.000E+00
      21     1     1     2   501   511  2.363474948E+00  2.082337444E+00 -3.216047065E-01  3.166318469E+00  1.657649537E-07  0.00000E+00  9.000E+00
#rwgt            1          24   2141329.9392788713                3    16051745           0
<weights>
0.11145E+08
0.13116E+08
0.90390E+07
0.13158E+08
0.89759E+07
0.11014E+08
0.11080E+08
0.11144E+08
0.11153E+08
0.10780E+08
0.10748E+08
0.10947E+08
0.10968E+08
0.10789E+08
0.10761E+08
0.11230E+08
0.11248E+08
0.11522E+08
0.11591E+08
0.11572E+08
0.11495E+08
0.11579E+08
0.11588E+08
0.11525E+08
0.11326E+08
0.11298E+08
0.11554E+08
0.11500E+08
0.11432E+08
0.11564E+08
0.11591E+08
0.11204E+08
0.11220E+08
0.11133E+08
0.11190E+08
0.11185E+08
0.11129E+08
0.11214E+08
0.11002E+08
0.11187E+08
0.11109E+08
0.11197E+08
0.11091E+08
0.11571E+08
0.10757E+08
</weights>
</event>
<event>
      7  10001  1.11453E+07  4.61346E+00 -1.00000E+00  2.47216E-01
      21    -1     0     0   511   501  0.000000000E+00  0.000000000E+00  6.918709420E+00  6.918709420E+00  0.000000000E+00  0.00000E+00  9.000E+00
      -2    -1     0     0     0   502  0.000000000E+00  0.000000000E+00 -4.562226084E+01  4.562226084E+01  0.000000000E+00  0.00000E+00  9.000E+00
      23     2     1     2     0     0 -1.410382588E+00  1.147865987E+00 -4.028189796E+01  4.036340929E+01  1.807410019E+00  0.00000E+00  9.000E+00
      11     1     3     3     0     0 -1.218006062E+00  7.022807563E-02 -1.236147296E+01  1.242153311E+01  5.110000000E-04  0.00000E+00  9.000E+00
     -11     1     3     3     0     0 -1.923765256E-01  1.077637911E+00 -2.792042500E+01  2.794187618E+01  5.110000000E-04  0.00000E+00  9.000E+00
      -2     1     1     2     0   501  4.840634305E+00  1.937165032E+00 -2.712401233E+00  5.877199102E+00  0.000000000E+00  0.00000E+00  9.000E+00
      21     1     1     2   511   502 -3.430251718E+00 -3.085031019E+00  4.290747772E+00  6.300361869E+00  1.576990671E-07  0.00000E+00  9.000E+00
#rwgt            1          14   1305037.4562176932                3    16070708           0
<weights>
0.11145E+08
0.12082E+08
0.10023E+08
0.12751E+08
0.94213E+07
0.10538E+08
0.11810E+08
0.11237E+08
0.11054E+08
0.10957E+08
0.11031E+08
0.11033E+08
0.11051E+08
0.11016E+08
0.11028E+08
0.11077E+08
0.11262E+08
0.11286E+08
0.11211E+08
0.11182E+08
0.11295E+08
0.11247E+08
0.11283E+08
0.11214E+08
0.11238E+08
0.11305E+08
0.11047E+08
0.11251E+08
0.11067E+08
0.11207E+08
0.11252E+08
0.11072E+08
0.11252E+08
0.11274E+08
0.11024E+08
0.11000E+08
0.11286E+08
0.10885E+08
0.11401E+08
0.11109E+08
0.11166E+08
0.11271E+08
0.11010E+08
0.11285E+08
0.11005E+08
</weights>
</event>
<event>
      6  10001  1.11453E+07  8.94427E-01 -1.00000E+00  6.04779E-01
      -2    -1     0     0     0   502  0.000000000E+00  0.000000000E+00  1.084180152E+00  1.084180152E+00  0.000000000E+00  0.00000E+00  9.000E+00
       2    -1     0     0   501     0  0.000000000E+00  0.000000000E+00 -1.766142685E+01  1.766142685E+01  0.000000000E+00  0.00000E+00  9.000E+00
      23     2     1     2     0     0  1.363050204E-01 -4.213773087E-01 -3.520276548E-01  2.514344854E+00  2.449871156E+00  0.00000E+00  9.000E+00
      11     1     3     3     0     0  8.364826887E-01  5.022287430E-01  4.802522343E-01  1.087464698E+00  5.110000000E-04  0.00000E+00  9.000E+00
     -11     1     3     3     0     0 -7.001776683E-01 -9.236060517E-01 -8.322798892E-01  1.426880156E+00  5.110000000E-04  0.00000E+00  9.000E+00
      21     1     1     2   501   502 -1.363050204E-01  4.213773087E-01 -1.622521904E+01  1.623126215E+01  2.384185791E-07  0.00000E+00  9.000E+00
#rwgt            1           8   1181238.4723139263                3    16082424           0
<weights>
0.11145E+08
0.11991E+08
0.10278E+08
0.12161E+08
0.98514E+07
0.10816E+08
0.11384E+08
0.11195E+08
0.11093E+08
0.10885E+08
0.10918E+08
0.11047E+08
0.10978E+08
0.10913E+08
0.10920E+08
0.11090E+08
0.11341E+08
0.11285E+08
0.11508E+08
0.11512E+08
0.11267E+08
0.11386E+08
0.11417E+08
0.11275E+08
0.11332E+08
0.11318E+08
0.11063E+08
0.11470E+08
0.11087E+08
0.11364E+08
0.11370E+08
0.11152E+08
0.11212E+08
0.11097E+08
0.11235E+08
0.11096E+08
0.11209E+08
0.10975E+08
0.11231E+08
0.11112E+08
0.11171E+08
0.11218E+08
0.11068E+08
0.11403E+08
0.10904E+08
</weights>
</event>
<event>
      6  10001 -1.11453E+07  8.94427E-01 -1.00000E+00  5.73602E-01
      -2    -1     0     0     0   502  0.000000000E+00  0.000000000E+00  6.452418238E+01  6.452418238E+01  0.000000000E+00  0.00000E+00  9.000E+00
      21    -1     0     0   502   501  0.000000000E+00  0.000000000E+00 -1.911098501E-02  1.911098501E-02  0.000000000E+00  0.00000E+00  9.000E+00
      23     2     1     2     0     0 -2.679720374E-01  6.536315734E-01  3.125534351E+01  3.128606186E+01  1.192528933E+00  0.00000E+00  9.000E+00
      11     1     3     3     0     0 -6.325629203E-01  5.871314622E-03  1.627245045E+01  1.628474176E+01  5.110000000E-04  0.00000E+00  9.000E+00
     -11     1     3     3     0     0  3.645908829E-01  6.477602588E-01  1.498289306E+01  1.500132010E+01  5.110000000E-04  0.00000E+00  9.000E+00
      -2     1     1     2     0   501  2.679720374E-01 -6.536315734E-01  3.324972788E+01  3.325723150E+01  0.000000000E+00  0.00000E+00  9.000E+00
#rwgt            1           7  -2336154.0962732933                3    16086302           0
<weights>
-.11145E+08
-.12760E+08
-.93561E+07
-.15518E+08
-.74970E+07
-.91642E+07
-.13909E+08
-.11172E+08
-.11120E+08
-.10824E+08
-.10814E+08
-.10962E+08
-.11006E+08
-.10841E+08
-.10824E+08
-.11226E+08
-.11211E+08
-.11462E+08
-.11503E+08
-.11491E+08
-.11438E+08
-.11501E+08
-.11520E+08
-.11411E+08
-.11329E+08
-.11287E+08
-.11351E+08
-.11434E+08
-.11371E+08
-.11479E+08
-.11513E+08
-.11184E+08
-.11217E+08
-.11138E+08
-.11178E+08
-.11209E+08
-.11101E+08
-.11132E+08
-.11084E+08
-.11166E+08
-.11128E+08
-.11185E+08
-.11104E+08
-.11505E+08
-.10814E+08
</weights>
</event>
<event>
      7  10001  1.11453E+07  2.69177E+00 -1.00000E+00  3.06488E-01
      21    -1     0     0   502   501  0.000000000E+00  0.000000000E+00  6.318493941E-01  6.318493941E-01  0.000000000E+00  0.00000E+00  9.000E+00
       2    -1     0     0   501     0  0.000000000E+00  0.000000000E+00 -4.122187386E+01  4.122187386E+01  0.000000000E+00  0.00000E+00  9.000E+00
      23     2     1     2     0     0  1.908391515E-01  3.342709186E-01 -4.081549796E+01  4.087735981E+01  2.214839635E+00  0.00000E+00  9.000E+00
      11     1     3     3     0     0  7.101940323E-01  3.609682956E-01 -5.438559392E+00  5.496599148E+00  5.110000000E-04  0.00000E+00  9.000E+00
     -11     1     3     3     0     0 -5.193548808E-01 -2.669737697E-02 -3.537693857E+01  3.538076066E+01  5.110000000E-04  0.00000E+00  9.000E+00
       2     1     1     2   511     0  7.357784987E-02 -2.558178267E-01 -2.888224299E-01  3.927783808E-01  0.000000000E+00  0.00000E+00  9.000E+00
      21     1     1     2   502   511 -2.644170014E-01 -7.845309196E-02  5.142959201E-01  5.835850681E-01  1.635737598E-07  0.00000E+00  9.000E+00
#rwgt            2         189   7158636.9661729001                3    16089466           0
<weights>
0.11145E+08
0.10954E+08
0.11152E+08
0.13314E+08
0.89359E+07
0.91702E+07
0.13910E+08
0.11192E+08
0.11099E+08
0.11052E+08
0.11095E+08
0.11139E+08
0.11049E+08
0.11086E+08
0.11094E+08
0.11094E+08
0.11217E+08
0.11092E+08
0.11328E+08
0.11339E+08
0.11082E+08
0.11196E+08
0.11195E+08
0.11236E+08
0.11130E+08
0.11137E+08
0.11145E+08
0.11331E+08
0.10940E+08
0.11191E+08
0.11173E+08
0.11144E+08
0.11160E+08
0.11069E+08
0.11253E+08
0.11118E+08
0.11173E+08
0.11012E+08
0.11278E+08
0.11079E+08
0.11199E+08
0.11209E+08
0.11078E+08
0.11210E+08
0.11079E+08
</weights>
</event>
<event>
      6  10001 -1.11453E+07  8.94427E-01 -1.00000E+00  3.69575E-01
      21    -1     0     0   502   501  0.000000000E+00  0.000000000E+00  5.907082476E-03  5.907082476E-03  0.000000000E+00  0.00000E+00  9.000E+00
       2    -1     0     0   501     0  0.000000000E+00  0.000000000E+00 -3.735059752E+02  3.735059752E+02  0.000000000E+00  0.00000E+00  9.000E+00
      23     2     1     2     0     0 -1.339047247E-02 -9.991854964E-01 -1.649616665E+02  1.649710865E+02  1.452384203E+00  0.00000E+00  9.000E+00
      11     1     3     3     0     0 -2.571057300E-01  1.420109861E-01 -8.875589063E+01  8.875637662E+01  5.110000000E-04  0.00000E+00  9.000E+00
     -11     1     3     3     0     0  2.437152575E-01 -1.141196482E+00 -7.620577590E+01  7.621470992E+01  5.110000000E-04  0.00000E+00  9.000E+00
       2     1     1     2   502     0  1.339047247E-02  9.991854964E-01 -2.085384016E+02  2.085407958E+02  0.000000000E+00  0.00000E+00  9.000E+00
#rwgt            1          17  -10020316.603527782                3    16092491           0
<weights>
-.11145E+08
-.12018E+08
-.10101E+08
-.14606E+08
-.80935E+07
-.91702E+07
-.13910E+08
-.11128E+08
-.11162E+08
-.11168E+08
-.11157E+08
-.11024E+08
-.11287E+08
-.11161E+08
-.11158E+08
-.11331E+08
-.10867E+08
-.11396E+08
-.10769E+08
-.10719E+08
-.11424E+08
-.11105E+08
-.11164E+08
-.11095E+08
-.11151E+08
-.11259E+08
-.11069E+08
-.10845E+08
-.11451E+08
-.11079E+08
-.11173E+08
-.11021E+08
-.11265E+08
-.11411E+08
-.10811E+08
-.11115E+08
-.11172E+08
-.11159E+08
-.11134E+08
-.11222E+08
-.11075E+08
-.11143E+08
-.11147E+08
-.11127E+08
-.11163E+08
</weights>
</event>
<event>
      6  10001  1.11453E+07  8.94427E-01 -1.00000E+00  6.03062E-01
      -5    -1     0     0     0   502  0.000000000E+00  0.000000000E+00  5.175935971E+00  5.175935971E+00  0.000000000E+00  0.00000E+00  9.000E+00
      21    -1     0     0   502   501  0.000000000E+00  0.000000000E+00 -5.149155075E+00  5.149155075E+00  0.000000000E+00  0.00000E+00  9.000E+00
      23     2     1     2     0     0 -1.440990113E-02  7.244582241E-01  5.061924780E+00  5.238076077E+00  1.135478375E+00  0.00000E+00  9.000E+00
      11     1     3     3     0     0 -3.632576055E-02  1.002907042E+00  4.500189345E+00  4.610731667E+00  5.110000000E-04  0.00000E+00  9.000E+00
     -11     1     3     3     0     0  2.191585942E-02 -2.784488178E-01  5.617354346E-01  6.273444099E-01  5.110000000E-04  0.00000E+00  9.000E+00
      -5     1     1     2     0   501  1.440990113E-02 -7.244582241E-01 -5.035143885E+00  5.087014970E+00  0.000000000E+00  0.00000E+00  9.000E+00
#rwgt            1           1   485807.63767902215                3    16092841           0
<weights>
0.11145E+08
0.14613E+08
0.74834E+07
0.13845E+08
0.82089E+07
0.11678E+08
0.10060E+08
0.11221E+08
0.11064E+08
0.10674E+08
0.10650E+08
0.10886E+08
0.10927E+08
0.10682E+08
0.10662E+08
0.11271E+08
0.11248E+08
0.11642E+08
0.11656E+08
0.11653E+08
0.11601E+08
0.11684E+08
0.11727E+08
0.11436E+08
0.11487E+08
0.11424E+08
0.11102E+08
0.11598E+08
0.11473E+08
0.11657E+08
0.11705E+08
0.11208E+08
0.11247E+08
0.11119E+08
0.11207E+08
0.11265E+08
0.11048E+08
0.11166E+08
0.10971E+08
0.11205E+08
0.11093E+08
0.11206E+08
0.11082E+08
0.11685E+08
0.10653E+08
</weights>
</event>
<event>
      6  10001 -1.11453E+07  8.94427E-01 -1.00000E+00  5.23087E-01
      21    -1     0     0   502   501  0.000000000E+00  0.000000000E+00  4.181122095E-03  4.181122095E-03  0.000000000E+00  0.00000E+00  9.000E+00
       2    -1     0     0   501     0  0.000000000E+00  0.000000000E+00 -5.454004271E+02  5.454004271E+02  0.000000000E+00  0.00000E+00  9.000E+00
      23     2     1     2     0     0  6.202537321E-02  4.428360899E-01 -5.178107112E+02  5.178154495E+02  2.169594166E+00  0.00000E+00  9.000E+00
      11     1     3     3     0     0 -1.762066999E-01 -8.634520031E-01 -2.256802033E+02  2.256819238E+02  5.110000000E-04  0.00000E+00  9.000E+00
     -11     1     3     3     0     0  2.382320731E-01  1.306288093E+00 -2.921305080E+02  2.921335257E+02  5.110000000E-04  0.00000E+00  9.000E+00
       2     1     1     2   502     0 -6.202537321E-02 -4.428360899E-01 -2.758553471E+01  2.758915867E+01  0.000000000E+00  0.00000E+00  9.000E+00
#rwgt            1          17  -105708423.87058379                3    16097184           0
<weights>
-.11145E+08
-.11678E+08
-.10508E+08
-.14193E+08
-.84200E+07
-.91702E+07
-.13910E+08
-.11131E+08
-.11159E+08
-.11164E+08
-.11147E+08
-.10965E+08
-.11348E+08
-.11155E+08
-.11150E+08
-.11226E+08
-.11018E+08
-.11509E+08
-.10639E+08
-.10565E+08
-.11553E+08
-.11111E+08
-.11172E+08
-.11013E+08
-.11242E+08
-.11402E+08
-.10987E+08
-.10693E+08
-.11654E+08
-.11061E+08
-.11196E+08
-.11040E+08
-.11248E+08
-.11579E+08
-.10619E+08
-.11085E+08
-.11200E+08
-.11139E+08
-.11159E+08
-.11273E+08
-.11032E+08
-.11129E+08
-.11162E+08
-.11134E+08
-.11156E+08
</weights>
</event>
<event>
      7  10001 -1.11453E+07  1.12664E+00 -1.00000E+00  5.18499E-01
      21    -1     0     0   502   511  0.000000000E+00  0.000000000E+00  3.290583907E+01  3.290583907E+01  0.000000000E+00  0.00000E+00  9.000E+00
      -1    -1     0     0     0   502  0.000000000E+00  0.000000000E+00 -5.283889787E+00  5.283889787E+00  0.000000000E+00  0.00000E+00  9.000E+00
      23     2     1     2     0     0  6.793641050E-01 -1.951537188E-01 -4.465697447E+00  4.760223349E+00  1.489178323E+00  0.00000E+00  9.000E+00
      11     1     3     3     0     0  8.223430983E-03 -5.736353794E-01 -3.383279324E+00  3.431574627E+00  5.110000000E-04  0.00000E+00  9.000E+00
     -11     1     3     3     0     0  6.711406740E-01  3.784816606E-01 -1.082418123E+00  1.328648722E+00  5.110000000E-04  0.00000E+00  9.000E+00
      -1     1     1     2     0   501  4.223185508E-01  4.309827845E-01 -5.235358776E-01  7.988672819E-01  0.000000000E+00  0.00000E+00  9.000E+00
      21     1     1     2   501   511 -1.101682656E+00 -2.358290657E-01  3.261118261E+01  3.263063823E+01  4.768371582E-07  0.00000E+00  9.000E+00
#rwgt            1          15  -237201.23256710256                3    16098943           0
<weights>
-.11145E+08
-.88800E+07
-.12770E+08
-.16405E+08
-.71015E+07
-.56378E+07
-.19332E+08
-.11279E+08
-.11009E+08
-.10945E+08
-.11006E+08
-.10997E+08
-.11130E+08
-.10990E+08
-.11007E+08
-.11217E+08
-.11096E+08
-.11274E+08
-.11292E+08
-.11292E+08
-.11263E+08
-.11276E+08
-.11325E+08
-.11150E+08
-.11327E+08
-.11232E+08
-.11095E+08
-.11235E+08
-.11219E+08
-.11232E+08
-.11294E+08
-.11137E+08
-.11196E+08
-.11152E+08
-.11141E+08
-.11335E+08
-.10960E+08
-.10911E+08
-.11333E+08
-.11108E+08
-.11180E+08
-.11140E+08
-.11151E+08
-.11316E+08
-.10979E+08
</weights>
</event>
<event>
      7  10001  1.11453E+07  1.25854E+00 -1.00000E+00  4.80999E-01
      21    -1     0     0   501   511  0.000000000E+00  0.000000000E+00  1.656218126E+02  1.656218126E+02  0.000000000E+00  0.00000E+00  9.000E+00
      -2    -1     0     0     0   502  0.000000000E+00  0.000000000E+00 -6.752989231E-02  6.752989231E-02  0.000000000E+00  0.00000E+00  9.000E+00
      23     2     1     2     0     0 -2.209043735E-01 -1.801172063E+00  3.347663599E+01  3.355387737E+01  1.372774504E+00  0.00000E+00  9.000E+00
      11     1     3     3     0     0 -4.502015180E-01 -1.174842426E+00  2.905413484E+01  2.908136324E+01  5.110000000E-04  0.00000E+00  9.000E+00
     -11     1     3     3     0     0  2.292971445E-01 -6.263296373E-01  4.422501150E+00  4.472514133E+00  5.110000000E-04  0.00000E+00  9.000E+00
      21     1     1     2   501   502 -9.987608732E-01  1.490770839E+00  1.139740458E+02  1.139881706E+02  0.000000000E+00  0.00000E+00  9.000E+00
      -2     1     1     2     0   511  1.219665247E+00  3.104012241E-01  1.810360090E+01  1.814729450E+01  0.000000000E+00  0.00000E+00  9.000E+00
#rwgt            1          23   290889.79085084918                3    16106180           0
<weights>
0.11145E+08
0.12020E+08
0.10291E+08
0.11588E+08
0.10183E+08
0.11191E+08
0.10807E+08
0.10899E+08
0.11495E+08
0.10797E+08
0.10747E+08
0.10969E+08
0.10944E+08
0.10802E+08
0.10763E+08
0.11188E+08
0.11307E+08
0.11529E+08
0.11558E+08
0.11534E+08
0.11508E+08
0.11580E+08
0.11570E+08
0.11555E+08
0.11269E+08
0.11334E+08
0.11413E+08
0.11524E+08
0.11384E+08
0.11572E+08
0.11576E+08
0.11174E+08
0.11250E+08
0.11133E+08
0.11193E+08
0.11021E+08
0.11316E+08
0.11225E+08
0.10998E+08
0.11182E+08
0.11112E+08
0.11219E+08
0.11067E+08
0.11562E+08
0.10766E+08
</weights>
</event>
<event>
      7  10001  1.11453E+07  1.50886E+00 -1.00000E+00  4.15728E-01
      21    -1     0     0   511   502  0.000000000E+00  0.000000000E+00  1.164289055E+01  1.164289055E+01  0.000000000E+00  0.00000E+00  9.000E+00
       4    -1     0     0   501     0  0.000000000E+00  0.000000000E+00 -1.130241445E+00  1.130241445E+00  0.000000000E+00  0.00000E+00  9.000E+00
      23     2     1     2     0     0 -1.560766522E+00  1.157799168E-01  1.404206346E+00  2.507532713E+00  1.366209252E+00  0.00000E+00  9.000E+00
      11     1     3     3     0     0 -8.389577773E-01  3.889111708E-01  2.260547579E-02  9.249936862E-01  5.110000000E-04  0.00000E+00  9.000E+00
     -11     1     3     3     0     0 -7.218087445E-01 -2.731312540E-01  1.381600870E+00  1.582539027E+00  5.110000000E-04  0.00000E+00  9.000E+00
      21     1     1     2   501   502  1.733898978E+00  1.383110402E+00  8.221372732E+00  8.515302088E+00  1.192092896E-07  0.00000E+00  9.000E+00
       4     1     1     2   511     0 -1.731324563E-01 -1.498890319E+00  8.870700278E-01  1.750297195E+00  0.000000000E+00  0.00000E+00  9.000E+00
#rwgt            1           4   96493.673859049130                3    16111080           0
<weights>
0.11145E+08
0.12352E+08
0.99675E+07
0.11715E+08
0.98390E+07
0.11255E+08
0.10710E+08
0.11195E+08
0.11091E+08
0.10763E+08
0.10732E+08
0.10927E+08
0.10977E+08
0.10773E+08
0.10746E+08
0.11242E+08
0.11247E+08
0.11555E+08
0.11562E+08
0.11558E+08
0.11523E+08
0.11598E+08
0.11606E+08
0.11421E+08
0.11393E+08
0.11369E+08
0.11162E+08
0.11536E+08
0.11415E+08
0.11580E+08
0.11609E+08
0.11211E+08
0.11218E+08
0.11125E+08
0.11198E+08
0.11237E+08
0.11074E+08
0.11206E+08
0.10997E+08
0.11190E+08
0.11108E+08
0.11187E+08
0.11102E+08
0.11590E+08
0.10739E+08
</weights>
</event>
<event>
      7  10001  1.11453E+07  2.42957E+00 -1.00000E+00  3.21311E-01
      21    -1     0     0   511   501  0.000000000E+00  0.000000000E+00  1.851367502E-01  1.851367502E-01  0.000000000E+00  0.00000E+00  9.000E+00
       2    -1     0     0   501     0  0.000000000E+00  0.000000000E+00 -1.039229619E+02  1.039229619E+02  0.000000000E+00  0.00000E+00  9.000E+00
      23     2     1     2     0     0  1.886829268E-01  2.660115152E-02 -4.884826453E+01  4.890013512E+01  2.243648502E+00  0.00000E+00  9.000E+00
      11     1     3     3     0     0 -1.817591040E-01  1.068613844E+00 -2.988419860E+01  2.990385089E+01  5.110000000E-04  0.00000E+00  9.000E+00
     -11     1     3     3     0     0  3.704420308E-01 -1.042012692E+00 -1.896406593E+01  1.899628423E+01  5.110000000E-04  0.00000E+00  9.000E+00
       2     1     1     2   502     0  2.078317105E+00  8.471882333E-01 -4.370381080E+01  4.376140089E+01  0.000000000E+00  0.00000E+00  9.000E+00
      21     1     1     2   511   502 -2.267000032E+00 -8.737893848E-01 -1.118574979E+01  1.144656261E+01  0.000000000E+00  0.00000E+00  9.000E+00
#rwgt            1          17   1465585.7272421787                3    16116481           0
<weights>
0.11145E+08
0.13792E+08
0.84651E+07
0.12951E+08
0.91689E+07
0.11696E+08
0.10032E+08
0.11189E+08
0.11102E+08
0.11082E+08
0.11126E+08
0.11205E+08
0.10998E+08
0.11114E+08
0.11121E+08
0.11082E+08
0.11213E+08
0.11003E+08
0.11384E+08
0.11409E+08
0.10984E+08
0.11175E+08
0.11158E+08
0.11291E+08
0.11039E+08
0.11048E+08
0.11197E+08
0.11399E+08
0.10813E+08
0.11189E+08
0.11137E+08
0.11167E+08
0.11127E+08
0.10993E+08
0.11345E+08
0.11108E+08
0.11177E+08
0.11065E+08
0.11231E+08
0.11065E+08
0.11208E+08
0.11238E+08
0.11046E+08
0.11179E+08
0.11109E+08
</weights>
</event>
<event>
      7  10001  1.11453E+07  1.10432E+00 -1.00000E+00  5.25618E-01
       2    -1     0     0   501     0  0.000000000E+00  0.000000000E+00  2.457904171E+01  2.457904171E+01  0.000000000E+00  0.00000E+00  9.000E+00
       1    -1     0     0   502     0  0.000000000E+00  0.000000000E+00 -4.749094645E+01  4.749094645E+01  0.000000000E+00  0.00000E+00  9.000E+00
      23     2     1     2     0     0 -4.746411033E-01 -3.467638740E-01  2.448136090E+01  2.451087519E+01  1.049019566E+00  0.00000E+00  9.000E+00
      11     1     3     3     0     0  4.619385065E-02 -6.119049166E-01  1.358405911E+01  1.359791248E+01  5.110000000E-04  0.00000E+00  9.000E+00
     -11     1     3     3     0     0 -5.208349540E-01  2.651410426E-01  1.089730179E+01  1.091296272E+01  5.110000000E-04  0.00000E+00  9.000E+00
       2     1     1     2   502     0 -2.791960540E-02 -6.365766919E-01 -1.253696345E+00  1.406329945E+00  0.000000000E+00  0.00000E+00  9.000E+00
       1     1     1     2   501     0  5.025607087E-01  9.833405659E-01 -4.613956929E+01  4.615278302E+01  0.000000000E+00  0.00000E+00  9.000E+00
#rwgt            1          24   8280050.9253989318                3    16120447           0
<weights>
0.11145E+08
0.12511E+08
0.95328E+07
0.12805E+08
0.93077E+07
0.10844E+08
0.11341E+08
0.11197E+08
0.11089E+08
0.10723E+08
0.10698E+08
0.10910E+08
0.10954E+08
0.10742E+08
0.10712E+08
0.11258E+08
0.11241E+08
0.11586E+08
0.11598E+08
0.11591E+08
0.11552E+08
0.11634E+08
0.11642E+08
0.11456E+08
0.11404E+08
0.11362E+08
0.11221E+08
0.11554E+08
0.11448E+08
0.11612E+08
0.11647E+08
0.11213E+08
0.11227E+08
0.11128E+08
0.11197E+08
0.11236E+08
0.11076E+08
0.11186E+08
0.11005E+08
0.11190E+08
0.11107E+08
0.11197E+08
0.11091E+08
0.11628E+08
0.10703E+08
</weights>
</event>
<event>
      6  10001 -1.11453E+07  8.94427E-01 -1.00000E+00  1.39028E-01
       4    -1     0     0   501     0  0.000000000E+00  0.000000000E+00  7.576978478E+01  7.576978478E+01  0.000000000E+00  0.00000E+00  9.000E+00
      21    -1     0     0   502   501  0.000000000E+00  0.000000000E+00 -2.377467645E-02  2.377467645E-02  0.000000000E+00  0.00000E+00  9.000E+00
      23     2     1     2     0     0  1.625143792E-01 -2.481558246E-01  6.940995089E+01  6.945056028E+01  2.356066204E+00  0.00000E+00  9.000E+00
      11     1     3     3     0     0  9.525081451E-02 -4.605867621E-01  6.879291922E+01  6.879452702E+01  5.110000000E-04  0.00000E+00  9.000E+00
     -11     1     3     3     0     0  6.726356469E-02  2.124309376E-01  6.170316680E-01  6.560332544E-01  5.110000000E-04  0.00000E+00  9.000E+00
       4     1     1     2   502     0 -1.625143792E-01  2.481558246E-01  6.336059210E+00  6.342999176E+00  0.000000000E+00  0.00000E+00  9.000E+00
#rwgt            1          28  -4113772.9510906502                3    16323867           0
<weights>
-.11145E+08
-.12966E+08
-.91442E+07
-.15772E+08
-.73272E+07
-.91624E+07
-.13909E+08
-.11171E+08
-.11120E+08
-.10823E+08
-.10813E+08
-.10962E+08
-.11006E+08
-.10841E+08
-.10824E+08
-.11226E+08
-.11211E+08
-.11462E+08
-.11504E+08
-.11492E+08
-.11439E+08
-.11502E+08
-.11521E+08
-.11412E+08
-.11328E+08
-.11287E+08
-.11354E+08
-.11435E+08
-.11372E+08
-.11479E+08
-.11514E+08
-.11184E+08
-.11217E+08
-.11138E+08
-.11178E+08
-.11208E+08
-.11101E+08
-.11133E+08
-.11083E+08
-.11166E+08
-.11127E+08
-.11185E+08
-.11104E+08
-.11506E+08
-.10814E+08
</weights>
</event>
<event>
      7  10001 -1.11453E+07  1.09583E+00 -1.00000E+00  5.28392E-01
      -1    -1     0     0     0   502  0.000000000E+00  0.000000000E+00  8.357131823E+00  8.357131823E+00  0.000000000E+00  0.00000E+00  9.000E+00
      21    -1     0     0   511   501  0.000000000E+00  0.000000000E+00 -2.452704259E+01  2.452704259E+01  0.000000000E+00  0.00000E+00  9.000E+00
      23     2     1     2     0     0 -3.262184940E-01 -1.084388926E-01  6.729997649E+00  6.849841920E+00  1.228531024E+00  0.00000E+00  9.000E+00
      11     1     3     3     0     0 -3.110682852E-01 -5.182050290E-01  1.720183803E+00  1.823275215E+00  5.110000000E-04  0.00000E+00  9.000E+00
     -11     1     3     3     0     0 -1.515020888E-02  4.097661364E-01  5.009813846E+00  5.026566706E+00  5.110000000E-04  0.00000E+00  9.000E+00
      -1     1     1     2     0   501 -4.818376096E-01 -6.317624806E-01  1.453389954E+00  1.656391763E+00  0.000000000E+00  0.00000E+00  9.000E+00
      21     1     1     2   511   502  8.080561037E-01  7.402013732E-01 -2.435329837E+01  2.437794073E+01  3.371747881E-07  0.00000E+00  9.000E+00
#rwgt            1           9  -214602.75477819596                3    16325320           0
<weights>
-.11145E+08
-.11613E+08
-.90972E+07
-.22530E+08
-.25004E+07
-.38215E+07
-.22121E+08
-.11267E+08
-.11017E+08
-.11175E+08
-.11292E+08
-.11116E+08
-.11261E+08
-.11224E+08
-.11281E+08
-.11148E+08
-.11012E+08
-.11002E+08
-.10966E+08
-.10982E+08
-.11010E+08
-.10945E+08
-.11031E+08
-.10812E+08
-.11241E+08
-.11143E+08
-.10634E+08
-.10963E+08
-.10973E+08
-.10891E+08
-.10958E+08
-.11046E+08
-.11187E+08
-.11175E+08
-.11089E+08
-.11281E+08
-.11005E+08
-.10683E+08
-.11574E+08
-.11044E+08
-.11234E+08
-.11105E+08
-.11188E+08
-.11018E+08
-.11248E+08
</weights>
</event>
<event>
      6  10001 -1.11453E+07  8.94427E-01 -1.00000E+00  3.49571E-01
       2    -1     0     0   501     0  0.000000000E+00  0.000000000E+00  3.508089666E+02  3.508089666E+02  0.000000000E+00  0.00000E+00  9.000E+00
      21    -1     0     0   502   501  0.000000000E+00  0.000000000E+00 -6.821472028E-03  6.821472028E-03  0.000000000E+00  0.00000E+00  9.000E+00
      23     2     1     2     0     0 -1.759560799E-01 -3.067082276E-01  3.446305541E+02  3.446340758E+02  1.517356429E+00  0.00000E+00  9.000E+00
      11     1     3     3     0     0 -6.344925637E-01 -5.354319748E-01  2.881856331E+02  2.881868290E+02  5.110000000E-04  0.00000E+00  9.000E+00
     -11     1     3     3     0     0  4.585364838E-01  2.287237472E-01  5.644492101E+01  5.644724686E+01  5.110000000E-04  0.00000E+00  9.000E+00
       2     1     1     2   502     0  1.759560799E-01  3.067082276E-01  6.171591025E+00  6.181712243E+00  0.000000000E+00  0.00000E+00  9.000E+00
#rwgt            1          24  -28204452.841257237                3    16330480           0
<weights>
-.11145E+08
-.11602E+08
-.10512E+08
-.14110E+08
-.84232E+07
-.91647E+07
-.13909E+08
-.11175E+08
-.11116E+08
-.10828E+08
-.10820E+08
-.10963E+08
-.11010E+08
-.10846E+08
-.10831E+08
-.11225E+08
-.11207E+08
-.11456E+08
-.11494E+08
-.11483E+08
-.11433E+08
-.11493E+08
-.11513E+08
-.11398E+08
-.11329E+08
-.11286E+08
-.11324E+08
-.11428E+08
-.11365E+08
-.11470E+08
-.11506E+08
-.11181E+08
-.11217E+08
-.11138E+08
-.11176E+08
-.11211E+08
-.11098E+08
-.11123E+08
-.11093E+08
-.11164E+08
-.11130E+08
-.11184E+08
-.11105E+08
-.11499E+08
-.10820E+08
</weights>
</event>
<event>
      6  10001 -1.11453E+07  8.94427E-01 -1.00000E+00  3.73700E-01
      -4    -1     0     0     0   502  0.000000000E+00  0.000000000E+00  1.421259997E+02  1.421259997E+02  0.000000000E+00  0.00000E+00  9.000E+00
      21    -1     0     0   502   501  0.000000000E+00  0.000000000E+00 -2.241311286E-02  2.241311286E-02  0.000000000E+00  0.00000E+00  9.000E+00
      23     2     1     2     0     0  6.049612800E-01  9.348554800E-01  5.354283407E+01  5.358066011E+01  1.676938986E+00  0.00000E+00  9.000E+00
      11     1     3     3     0     0 -5.125537967E-01  1.363018674E-01  8.265891431E+00  8.282889049E+00  5.110000000E-04  0.00000E+00  9.000E+00
     -11     1     3     3     0     0  1.117515077E+00  7.985536126E-01  4.527694264E+01  4.529777106E+01  5.110000000E-04  0.00000E+00  9.000E+00
      -4     1     1     2     0   501 -6.049612800E-01 -9.348554800E-01  8.856075253E+01  8.856775272E+01  0.000000000E+00  0.00000E+00  9.000E+00
#rwgt            1           3  -972988.02226117160                3    16331737           0
<weights>
-.11145E+08
-.13116E+08
-.89780E+07
-.15958E+08
-.71942E+07
-.91603E+07
-.13909E+08
-.11170E+08
-.11122E+08
-.10821E+08
-.10810E+08
-.10961E+08
-.11004E+08
-.10839E+08
-.10821E+08
-.11226E+08
-.11213E+08
-.11465E+08
-.11508E+08
-.11496E+08
-.11441E+08
-.11505E+08
-.11524E+08
-.11418E+08
-.11328E+08
-.11287E+08
-.11364E+08
-.11438E+08
-.11375E+08
-.11483E+08
-.11517E+08
-.11185E+08
-.11217E+08
-.11137E+08
-.11178E+08
-.11207E+08
-.11103E+08
-.11136E+08
-.11080E+08
-.11167E+08
-.11127E+08
-.11186E+08
-.11103E+08
-.11509E+08
-.10811E+08
</weights>
</event>
<event>
      6  10001 -1.11453E+07  8.94427E-01 -1.00000E+00  3.42303E-01
       2    -1     0     0   501     0  0.000000000E+00  0.000000000E+00  9.419999680E+01  9.419999680E+01  0.000000000E+00  0.00000E+00  9.000E+00
      21    -1     0     0   502   501  0.000000000E+00  0.000000000E+00 -1.862846528E-02  1.862846528E-02  0.000000000E+00  0.00000E+00  9.000E+00
      23     2     1     2     0     0 -7.038974912E-01  7.198287093E-01  3.540249175E+01  3.543112696E+01  1.007328212E+00  0.00000E+00  9.000E+00
      11     1     3     3     0     0 -5.996476194E-01 -7.767649927E-02  1.780646962E+01  1.781673291E+01  5.110000000E-04  0.00000E+00  9.000E+00
     -11     1     3     3     0     0 -1.042498717E-01  7.975052086E-01  1.759602213E+01  1.761439405E+01  5.110000000E-04  0.00000E+00  9.000E+00
       2     1     1     2   502     0  7.038974912E-01 -7.198287093E-01  5.877887658E+01  5.878749830E+01  0.000000000E+00  0.00000E+00  9.000E+00
#rwgt            1          24  -8245580.7422011206                3    16332998           0
<weights>
-.11147E+08
-.12595E+08
-.94931E+07
-.15349E+08
-.76078E+07
-.91465E+07
-.13909E+08
-.11176E+08
-.11118E+08
-.10830E+08
-.10822E+08
-.10965E+08
-.11012E+08
-.10848E+08
-.10832E+08
-.11227E+08
-.11209E+08
-.11457E+08
-.11496E+08
-.11485E+08
-.11434E+08
-.11494E+08
-.11515E+08
-.11401E+08
-.11330E+08
-.11287E+08
-.11335E+08
-.11429E+08
-.11367E+08
-.11471E+08
-.11507E+08
-.11183E+08
-.11218E+08
-.11140E+08
-.11178E+08
-.11212E+08
-.11100E+08
-.11125E+08
-.11094E+08
-.11166E+08
-.11131E+08
-.11185E+08
-.11107E+08
-.11500E+08
-.10822E+08
</weights>
</event>
<event>
      6  10001 -1.11453E+07  8.94427E-01 -1.00000E+00  1.79715E-01
      21    -1     0     0   502   501  0.000000000E+00  0.000000000E+00  9.708144932E-03  9.708144932E-03  0.000000000E+00  0.00000E+00  9.000E+00
       2    -1     0     0   501     0  0.000000000E+00  0.000000000E+00 -6.631473908E+01  6.631473908E+01  0.000000000E+00  0.00000E+00  9.000E+00
      23     2     1     2     0     0  1.142998446E-02 -2.588923383E-01 -5.902006853E+01  5.903487706E+01  1.296558827E+00  0.00000E+00  9.000E+00
      11     1     3     3     0     0  7.466817019E-02 -5.530621009E-01 -5.525063608E+01  5.525345455E+01  5.110000000E-04  0.00000E+00  9.000E+00
     -11     1     3     3     0     0 -6.323818574E-02  2.941697626E-01 -3.769432451E+00  3.781422507E+00  5.110000000E-04  0.00000E+00  9.000E+00
       2     1     1     2   502     0 -1.142998446E-02  2.588923383E-01 -7.284962411E+00  7.289570167E+00  0.000000000E+00  0.00000E+00  9.000E+00
#rwgt            1          17  -6957167.1823162716                3    16334156           0
<weights>
-.11145E+08
-.12341E+08
-.98084E+07
-.14998E+08
-.78590E+07
-.91702E+07
-.13910E+08
-.11173E+08
-.11117E+08
-.11111E+08
-.11142E+08
-.11160E+08
-.11082E+08
-.11138E+08
-.11142E+08
-.11130E+08
-.11138E+08
-.11067E+08
-.11241E+08
-.11252E+08
-.11059E+08
-.11146E+08
-.11137E+08
-.11235E+08
-.11058E+08
-.11084E+08
-.11171E+08
-.11271E+08
-.10938E+08
-.11150E+08
-.11127E+08
-.11138E+08
-.11150E+08
-.11071E+08
-.11242E+08
-.11127E+08
-.11159E+08
-.11069E+08
-.11233E+08
-.11084E+08
-.11195E+08
-.11202E+08
-.11085E+08
-.11154E+08
-.11132E+08
</weights>
</event>
<event>
      6  10001 -1.11453E+07  8.94427E-01 -1.00000E+00  4.54581E-01
      21    -1     0     0   502   501  0.000000000E+00  0.000000000E+00  3.619844202E-03  3.619844202E-03  0.000000000E+00  0.00000E+00  9.000E+00
      -2    -1     0     0     0   502  0.000000000E+00  0.000000000E+00 -3.420282219E+02  3.420282219E+02  0.000000000E+00  0.00000E+00  9.000E+00
      23     2     1     2     0     0 -5.154931465E-01 -1.861087887E-01 -3.057793816E+02  3.057824780E+02  1.262235836E+00  0.00000E+00  9.000E+00
      11     1     3     3     0     0 -6.640051756E-01 -2.828086356E-01 -2.987211480E+02  2.987220199E+02  5.110000000E-04  0.00000E+00  9.000E+00
     -11     1     3     3     0     0  1.485120291E-01  9.669984685E-02 -7.058233588E+00  7.060458082E+00  5.110000000E-04  0.00000E+00  9.000E+00
      -2     1     1     2     0   501  5.154931465E-01  1.861087887E-01 -3.624522047E+01  3.624936381E+01  0.000000000E+00  0.00000E+00  9.000E+00
#rwgt            1          14  -1314605.8488533527                3    16334885           0
<weights>
-.11145E+08
-.11510E+08
-.10621E+08
-.13989E+08
-.85104E+07
-.91702E+07
-.13910E+08
-.10942E+08
-.11340E+08
-.11426E+08
-.11343E+08
-.11151E+08
-.11293E+08
-.11337E+08
-.11358E+08
-.11028E+08
-.11207E+08
-.11014E+08
-.10900E+08
-.10883E+08
-.11033E+08
-.10921E+08
-.10974E+08
-.11087E+08
-.10975E+08
-.10945E+08
-.11210E+08
-.10948E+08
-.10975E+08
-.10982E+08
-.10963E+08
-.11340E+08
-.10881E+08
-.11319E+08
-.10978E+08
-.11322E+08
-.10968E+08
-.11555E+08
-.10721E+08
-.11150E+08
-.11123E+08
-.11324E+08
-.10953E+08
-.10899E+08
-.11387E+08
</weights>
</event>
<event>
      6  10001 -1.11453E+07  8.94427E-01 -1.00000E+00  6.45401E-01
       2    -1     0     0   501     0  0.000000000E+00  0.000000000E+00  8.244049412E+02  8.244049412E+02  0.000000000E+00  0.00000E+00  9.000E+00
      21    -1     0     0   502   501  0.000000000E+00  0.000000000E+00 -1.015558732E-03  1.015558732E-03  0.000000000E+00  0.00000E+00  9.000E+00
      23     2     1     2     0     0 -2.745639923E-01  2.909577282E-01  4.601699603E+02  4.601717717E+02  1.227633769E+00  0.00000E+00  9.000E+00
      11     1     3     3     0     0 -6.286587053E-01  2.577074808E-01  1.431922560E+02  1.431938679E+02  5.110000000E-04  0.00000E+00  9.000E+00
     -11     1     3     3     0     0  3.540947130E-01  3.325024733E-02  3.169777043E+02  3.169779038E+02  5.110000000E-04  0.00000E+00  9.000E+00
       2     1     1     2   502     0  2.745639923E-01 -2.909577282E-01  3.642339654E+02  3.642341851E+02  0.000000000E+00  0.00000E+00  9.000E+00
#rwgt            1          24  -14769152.957667105                3    16337838           0
<weights>
-.11145E+08
-.11366E+08
-.10768E+08
-.13826E+08
-.86280E+07
-.91620E+07
-.13909E+08
-.11169E+08
-.11123E+08
-.10824E+08
-.10813E+08
-.10962E+08
-.11006E+08
-.10841E+08
-.10824E+08
-.11225E+08
-.11211E+08
-.11461E+08
-.11506E+08
-.11493E+08
-.11438E+08
-.11501E+08
-.11520E+08
-.11416E+08
-.11327E+08
-.11285E+08
-.11369E+08
-.11434E+08
-.11372E+08
-.11479E+08
-.11514E+08
-.11183E+08
-.11217E+08
-.11138E+08
-.11178E+08
-.11207E+08
-.11103E+08
-.11132E+08
-.11084E+08
-.11166E+08
-.11128E+08
-.11185E+08
-.11103E+08
-.11505E+08
-.10814E+08
</weights>
</event>
<event>
      7  10001  1.11453E+07  1.34581E+00 -1.00000E+00  4.59925E-01
      -1    -1     0     0     0   501  0.000000000E+00  0.000000000E+00  1.689591691E+02  1.689591691E+02  0.000000000E+00  0.00000E+00  9.000E+00
       2    -1     0     0   501     0  0.000000000E+00  0.000000000E+00 -2.925836402E-01  2.925836402E-01  0.000000000E+00  0.00000E+00  9.000E+00
      23     2     1     2     0     0 -1.891338640E+00 -5.431081272E-01  1.319634552E+01  1.349092134E+01  1.997322014E+00  0.00000E+00  9.000E+00
      11     1     3     3     0     0 -3.201032945E-01  5.426174298E-01  1.327630227E+00  1.469524439E+00  5.110000000E-04  0.00000E+00  9.000E+00
     -11     1     3     3     0     0 -1.571235346E+00 -1.085725557E+00  1.186871530E+01  1.202139690E+01  5.110000000E-04  0.00000E+00  9.000E+00
       2     1     1     2   502     0  9.754666091E-01 -4.429807362E-01  1.873431265E+00  2.158126906E+00  0.000000000E+00  0.00000E+00  9.000E+00
      -1     1     1     2     0   502  9.158720314E-01  9.860888634E-01  1.535968087E+02  1.536027045E+02  0.000000000E+00  0.00000E+00  9.000E+00
#rwgt            1          17   352353.49642310722                3    16338077           0
<weights>
0.11159E+08
0.13189E+08
0.92435E+07
0.11845E+08
0.10020E+08
0.11954E+08
0.96714E+07
0.10908E+08
0.11470E+08
0.10814E+08
0.10761E+08
0.10990E+08
0.10948E+08
0.10817E+08
0.10777E+08
0.11185E+08
0.11348E+08
0.11548E+08
0.11553E+08
0.11534E+08
0.11526E+08
0.11595E+08
0.11579E+08
0.11528E+08
0.11298E+08
0.11378E+08
0.11253E+08
0.11559E+08
0.11364E+08
0.11589E+08
0.11585E+08
0.11182E+08
0.11270E+08
0.11147E+08
0.11210E+08
0.10991E+08
0.11372E+08
0.11241E+08
0.11009E+08
0.11194E+08
0.11126E+08
0.11243E+08
0.11071E+08
0.11574E+08
0.10782E+08
</weights>
</event>
<event>
      7  10001  1.11453E+07  3.14075E+00 -1.00000E+00  2.86655E-01
      21    -1     0     0   511   501  0.000000000E+00  0.000000000E+00  5.845372399E+01  5.845372399E+01  0.000000000E+00  0.00000E+00  9.000E+00
       4    -1     0     0   501     0  0.000000000E+00  0.000000000E+00 -1.877604239E+00  1.877604239E+00  0.000000000E+00  0.00000E+00  9.000E+00
      23     2     1     2     0     0  2.042795617E-01 -6.889046391E-01  8.608369628E-01  1.663000404E+00  1.228092148E+00  0.00000E+00  9.000E+00
      11     1     3     3     0     0  3.208924285E-01 -3.305783920E-01 -2.256635952E-01  5.130091064E-01  5.110000000E-04  0.00000E+00  9.000E+00
     -11     1     3     3     0     0 -1.166128669E-01 -3.583262471E-01  1.086500558E+00  1.149991297E+00  5.110000000E-04  0.00000E+00  9.000E+00
       4     1     1     2   502     0  1.890157550E+00 -1.651538235E+00 -3.330778358E-01  2.532037707E+00  0.000000000E+00  0.00000E+00  9.000E+00
      21     1     1     2   511   502 -2.094437112E+00  2.340442875E+00  5.604836062E+01  5.613629012E+01  6.743495762E-07  0.00000E+00  9.000E+00
#rwgt            1          19   159962.63955396801                3    16348142           0
<weights>
0.11145E+08
0.17620E+08
0.59777E+07
0.63694E+07
0.13181E+08
0.18651E+08
-.64377E+06
0.11188E+08
0.11095E+08
0.10570E+08
0.10459E+08
0.10835E+08
0.10848E+08
0.10550E+08
0.10485E+08
0.11283E+08
0.11378E+08
0.11838E+08
0.11832E+08
0.11830E+08
0.11782E+08
0.11919E+08
0.11893E+08
0.11647E+08
0.11504E+08
0.11529E+08
0.11173E+08
0.11841E+08
0.11611E+08
0.11923E+08
0.11928E+08
0.11298E+08
0.11227E+08
0.11094E+08
0.11257E+08
0.11241E+08
0.11078E+08
0.11485E+08
0.10682E+08
0.11272E+08
0.11037E+08
0.11216E+08
0.11072E+08
0.11869E+08
0.10494E+08
</weights>
</event>
<event>
      6  10001 -1.11453E+07  8.94427E-01 -1.00000E+00  2.81607E-01
      21    -1     0     0   502   501  0.000000000E+00  0.000000000E+00  2.388567673E-02  2.388567673E-02  0.000000000E+00  0.00000E+00  9.000E+00
       2    -1     0     0   501     0  0.000000000E+00  0.000000000E+00 -4.302640428E+02  4.302640428E+02  0.000000000E+00  0.00000E+00  9.000E+00
      23     2     1     2     0     0 -1.917660739E-01  7.012308341E-01 -4.240099245E+02  4.240154252E+02  2.033771865E+00  0.00000E+00  9.000E+00
      11     1     3     3     0     0 -6.743141761E-01  7.088674898E-01 -3.968968848E+02  3.968980906E+02  5.110000000E-04  0.00000E+00  9.000E+00
     -11     1     3     3     0     0  4.825481022E-01 -7.636655656E-03 -2.711303968E+01  2.711733453E+01  5.110000000E-04  0.00000E+00  9.000E+00
       2     1     1     2   502     0  1.917660739E-01 -7.012308341E-01 -6.230232654E+00  6.272503314E+00  0.000000000E+00  0.00000E+00  9.000E+00
#rwgt            1          17  -203962175.07366142                3    16351778           0
<weights>
-.11145E+08
-.12027E+08
-.10070E+08
-.14617E+08
-.80689E+07
-.91702E+07
-.13910E+08
-.11129E+08
-.11161E+08
-.11166E+08
-.11153E+08
-.10998E+08
-.11314E+08
-.11158E+08
-.11154E+08
-.11300E+08
-.10911E+08
-.11447E+08
-.10710E+08
-.10650E+08
-.11482E+08
-.11107E+08
-.11169E+08
-.11061E+08
-.11189E+08
-.11316E+08
-.11036E+08
-.10780E+08
-.11538E+08
-.11071E+08
-.11184E+08
-.11023E+08
-.11265E+08
-.11481E+08
-.10730E+08
-.11103E+08
-.11184E+08
-.11151E+08
-.11145E+08
-.11244E+08
-.11057E+08
-.11137E+08
-.11154E+08
-.11131E+08
-.11160E+08
</weights>
</event>
<event>
      6  10001 -1.11453E+07  8.94427E-01 -1.00000E+00  3.30988E-01
      21    -1     0     0   502   501  0.000000000E+00  0.000000000E+00  1.054019399E-02  1.054019399E-02  0.000000000E+00  0.00000E+00  9.000E+00
       2    -1     0     0   501     0  0.000000000E+00  0.000000000E+00 -3.540901952E+02  3.540901952E+02  0.000000000E+00  0.00000E+00  9.000E+00
      23     2     1     2     0     0 -1.594555550E+00 -5.036947674E-01 -2.165463029E+02  2.165572178E+02  1.389577672E+00  0.00000E+00  9.000E+00
      11     1     3     3     0     0 -1.279477762E+00 -7.364140803E-01 -2.026988701E+02  2.027042459E+02  5.110000000E-04  0.00000E+00  9.000E+00
     -11     1     3     3     0     0 -3.150777879E-01  2.327193129E-01 -1.384743283E+01  1.385297183E+01  5.110000000E-04  0.00000E+00  9.000E+00
       2     1     1     2   502     0  1.594555550E+00  5.036947674E-01 -1.375333520E+02  1.375435176E+02  0.000000000E+00  0.00000E+00  9.000E+00
#rwgt            1          17  -14903359.152261967                3    16353644           0
<weights>
-.11145E+08
-.11920E+08
-.10246E+08
-.14487E+08
-.82094E+07
-.91702E+07
-.13910E+08
-.11127E+08
-.11162E+08
-.11169E+08
-.11158E+08
-.11033E+08
-.11277E+08
-.11162E+08
-.11159E+08
-.11339E+08
-.10854E+08
-.11378E+08
-.10789E+08
-.10743E+08
-.11403E+08
-.11105E+08
-.11163E+08
-.11106E+08
-.11138E+08
-.11239E+08
-.11081E+08
-.10868E+08
-.11421E+08
-.11082E+08
-.11169E+08
-.11022E+08
-.11265E+08
-.11387E+08
-.10839E+08
-.11119E+08
-.11168E+08
-.11162E+08
-.11131E+08
-.11215E+08
-.11082E+08
-.11146E+08
-.11144E+08
-.11126E+08
-.11164E+08
</weights>
</event>
<event>
      6  10001 -1.11453E+07  8.94427E-01 -1.00000E+00  2.66711E-01
      21    -1     0     0   502   501  0.000000000E+00  0.000000000E+00  5.065577888E-03  5.065577888E-03  0.000000000E+00  0.00000E+00  9.000E+00
       2    -1     0     0   501     0  0.000000000E+00  0.000000000E+00 -9.285230475E+02  9.285230475E+02  0.000000000E+00  0.00000E+00  9.000E+00
      23     2     1     2     0     0 -4.523801534E-01 -3.520753420E-02 -9.172365807E+02  9.172375904E+02  1.283159231E+00  0.00000E+00  9.000E+00
      11     1     3     3     0     0 -8.144298594E-01  1.929646858E-01 -4.252704507E+02  4.252712743E+02  5.110000000E-04  0.00000E+00  9.000E+00
     -11     1     3     3     0     0  3.620497060E-01 -2.281722200E-01 -4.919661299E+02  4.919663161E+02  5.110000000E-04  0.00000E+00  9.000E+00
       2     1     1     2   502     0  4.523801534E-01  3.520753420E-02 -1.128140128E+01  1.129052267E+01  0.000000000E+00  0.00000E+00  9.000E+00
#rwgt            1          17  -47346257.598425068                3    16354167           0
<weights>
-.11145E+08
-.11421E+08
-.10699E+08
-.13881E+08
-.85727E+07
-.91702E+07
-.13910E+08
-.11139E+08
-.11152E+08
-.11164E+08
-.11134E+08
-.10904E+08
-.11413E+08
-.11152E+08
-.11144E+08
-.10776E+08
-.11686E+08
-.11606E+08
-.10527E+08
-.10422E+08
-.11674E+08
-.11130E+08
-.11157E+08
-.10890E+08
-.11378E+08
-.11696E+08
-.10820E+08
-.10490E+08
-.11926E+08
-.11045E+08
-.11216E+08
-.11213E+08
-.11073E+08
-.11837E+08
-.10338E+08
-.11034E+08
-.11249E+08
-.11110E+08
-.11195E+08
-.11347E+08
-.10969E+08
-.11111E+08
-.11181E+08
-.11140E+08
-.11151E+08
</weights>
</event>
<event>
      6  10001 -1.11453E+07  8.94427E-01 -1.00000E+00  1.46677E-01
       2    -1     0     0   501     0  0.000000000E+00  0.000000000E+00  3.527358033E+01  3.527358033E+01  0.000000000E+00  0.00000E+00  9.000E+00
      21    -1     0     0   502   501  0.000000000E+00  0.000000000E+00 -2.396074448E-02  2.396074448E-02  0.000000000E+00  0.00000E+00  9.000E+00
      23     2     1     2     0     0  1.927957363E-01  1.597032519E-01  2.555022661E+01  2.559491774E+01  1.490992748E+00  0.00000E+00  9.000E+00
      11     1     3     3     0     0 -4.817646744E-01  2.908225480E-01  1.908088373E+01  1.908918016E+01  5.110000000E-04  0.00000E+00  9.000E+00
     -11     1     3     3     0     0  6.745604106E-01 -1.311192961E-01  6.469342872E+00  6.505737581E+00  5.110000000E-04  0.00000E+00  9.000E+00
       2     1     1     2   502     0 -1.927957363E-01 -1.597032519E-01  9.699392984E+00  9.702623335E+00  0.000000000E+00  0.00000E+00  9.000E+00
#rwgt            1          24  -424737.57702406339                3    16354896           0
<weights>
-.11145E+08
-.12622E+08
-.95142E+07
-.15346E+08
-.76234E+07
-.91674E+07
-.13909E+08
-.11173E+08
-.11118E+08
-.10825E+08
-.10816E+08
-.10963E+08
-.11008E+08
-.10843E+08
-.10827E+08
-.11226E+08
-.11209E+08
-.11459E+08
-.11500E+08
-.11488E+08
-.11436E+08
-.11498E+08
-.11518E+08
-.11407E+08
-.11328E+08
-.11285E+08
-.11343E+08
-.11431E+08
-.11369E+08
-.11475E+08
-.11510E+08
-.11183E+08
-.11217E+08
-.11138E+08
-.11177E+08
-.11209E+08
-.11101E+08
-.11128E+08
-.11087E+08
-.11165E+08
-.11128E+08
-.11185E+08
-.11104E+08
-.11502E+08
-.10817E+08
</weights>
</event>
<event>
      6  10001 -1.11453E+07  8.94427E-01 -1.00000E+00  2.34351E-01
       2    -1     0     0   501     0  0.000000000E+00  0.000000000E+00  4.256474400E+02  4.256474400E+02  0.000000000E+00  0.00000E+00  9.000E+00
      21    -1     0     0   502   501  0.000000000E+00  0.000000000E+00 -1.941646111E-02  1.941646111E-02  0.000000000E+00  0.00000E+00  9.000E+00
      23     2     1     2     0     0 -2.740898753E-01  6.800216781E-01  4.182146653E+02  4.182173306E+02  1.300696798E+00  0.00000E+00  9.000E+00
      11     1     3     3     0     0 -2.412464193E-01 -1.921562397E-01  2.649937653E+02  2.649939448E+02  5.110000000E-04  0.00000E+00  9.000E+00
     -11     1     3     3     0     0 -3.284345606E-02  8.721779179E-01  1.532209000E+02  1.532233858E+02  5.110000000E-04  0.00000E+00  9.000E+00
       2     1     1     2   502     0  2.740898753E-01 -6.800216781E-01  7.413358311E+00  7.449525904E+00  0.000000000E+00  0.00000E+00  9.000E+00
#rwgt            1          24  -53017139.590380140                3    16360884           0
<weights>
-.11145E+08
-.11695E+08
-.10403E+08
-.14222E+08
-.83361E+07
-.91648E+07
-.13909E+08
-.11175E+08
-.11116E+08
-.10829E+08
-.10822E+08
-.10964E+08
-.11011E+08
-.10848E+08
-.10832E+08
-.11225E+08
-.11206E+08
-.11455E+08
-.11492E+08
-.11481E+08
-.11432E+08
-.11492E+08
-.11512E+08
-.11396E+08
-.11329E+08
-.11286E+08
-.11323E+08
-.11427E+08
-.11364E+08
-.11468E+08
-.11504E+08
-.11181E+08
-.11216E+08
-.11138E+08
-.11176E+08
-.11211E+08
-.11098E+08
-.11122E+08
-.11094E+08
-.11164E+08
-.11130E+08
-.11184E+08
-.11105E+08
-.11497E+08
-.10821E+08
</weights>
</event>
<event>
      6  10001  1.11453E+07  8.94427E-01 -1.00000E+00  6.07015E-01
       2    -1     0     0   501     0  0.000000000E+00  0.000000000E+00  9.029627378E+00  9.029627378E+00  0.000000000E+00  0.00000E+00  9.000E+00
      -2    -1     0     0     0   502  0.000000000E+00  0.000000000E+00 -3.678962557E-01  3.678962557E-01  0.000000000E+00  0.00000E+00  9.000E+00
      23     2     1     2     0     0 -3.329013853E-01 -3.232573092E-01  1.971671879E+00  2.691391268E+00  1.772224123E+00  0.00000E+00  9.000E+00
      11     1     3     3     0     0  9.506152425E-02  3.741762959E-01  1.818348681E+00  1.858880518E+00  5.110000000E-04  0.00000E+00  9.000E+00
     -11     1     3     3     0     0 -4.279629095E-01 -6.974336050E-01  1.533231980E-01  8.325107504E-01  5.110000000E-04  0.00000E+00  9.000E+00
      21     1     1     2   501   502  3.329013853E-01  3.232573092E-01  6.690059244E+00  6.706132366E+00  8.429369702E-08  0.00000E+00  9.000E+00
#rwgt            1          23   630627.39592325548                3    16364489           0
<weights>
0.11053E+08
0.14125E+08
0.97108E+07
0.11797E+08
0.98027E+07
0.12588E+08
0.10447E+08
0.10803E+08
0.11356E+08
0.10712E+08
0.10659E+08
0.10883E+08
0.10845E+08
0.10715E+08
0.10675E+08
0.11079E+08
0.11239E+08
0.11447E+08
0.11429E+08
0.11409E+08
0.11426E+08
0.11484E+08
0.11469E+08
0.11416E+08
0.11185E+08
0.11285E+08
0.11109E+08
0.11446E+08
0.11256E+08
0.11478E+08
0.11475E+08
0.11069E+08
0.11169E+08
0.11049E+08
0.11095E+08
0.10872E+08
0.11278E+08
0.11132E+08
0.10906E+08
0.11089E+08
0.11019E+08
0.11139E+08
0.10963E+08
0.11463E+08
0.10680E+08
</weights>
</event>
<event>
      6  10001  1.11453E+07  8.94427E-01 -1.00000E+00  5.68249E-01
      -2    -1     0     0     0   502  0.000000000E+00  0.000000000E+00  3.483843751E-01  3.483843751E-01  0.000000000E+00  0.00000E+00  9.000E+00
       2    -1     0     0   501     0  0.000000000E+00  0.000000000E+00 -1.790739383E+01  1.790739383E+01  0.000000000E+00  0.00000E+00  9.000E+00
      23     2     1     2     0     0  3.266001507E-01 -3.287699996E-01 -1.441150603E+01  1.507434218E+01  4.396535993E+00  0.00000E+00  9.000E+00
      11     1     3     3     0     0  9.274147285E-01  5.828606404E-01 -1.375874538E+01  1.380227878E+01  5.110000000E-04  0.00000E+00  9.000E+00
     -11     1     3     3     0     0 -6.008145777E-01 -9.116306400E-01 -6.527606444E-01  1.272063403E+00  5.110000000E-04  0.00000E+00  9.000E+00
      21     1     1     2   501   502 -3.266001507E-01  3.287699996E-01 -3.147503428E+00  3.181436028E+00  5.960464478E-08  0.00000E+00  9.000E+00
#rwgt            1           8   1140383.4737363490                3    16368779           0
<weights>
0.11145E+08
0.14996E+08
0.76878E+07
0.93370E+07
0.11829E+08
0.15096E+08
0.48130E+07
0.11167E+08
0.11115E+08
0.10759E+08
0.10764E+08
0.11105E+08
0.10741E+08
0.10765E+08
0.10765E+08
0.10916E+08
0.11697E+08
0.11309E+08
0.11892E+08
0.11907E+08
0.11276E+08
0.11575E+08
0.11598E+08
0.11442E+08
0.11401E+08
0.11426E+08
0.11040E+08
0.11833E+08
0.10925E+08
0.11580E+08
0.11516E+08
0.11203E+08
0.11215E+08
0.11009E+08
0.11383E+08
0.10833E+08
0.11478E+08
0.11049E+08
0.11070E+08
0.11122E+08
0.11153E+08
0.11333E+08
0.10946E+08
0.11564E+08
0.10763E+08
</weights>
</event>
<event>
      7  10001  1.11453E+07  1.62617E+00 -1.00000E+00  3.97236E-01
       2    -1     0     0   501     0  0.000000000E+00  0.000000000E+00  1.182268950E+00  1.182268950E+00  0.000000000E+00  0.00000E+00  9.000E+00
      -2    -1     0     0     0   502  0.000000000E+00  0.000000000E+00 -1.273513300E+00  1.273513300E+00  0.000000000E+00  0.00000E+00  9.000E+00
      23     2     1     2     0     0 -2.755358171E-01  2.130541240E-02  4.437784687E-01  1.354357998E+00  1.249388791E+00  0.00000E+00  9.000E+00
      11     1     3     3     0     0  2.444340549E-01  1.169295810E-02 -3.368513863E-01  4.163578389E-01  5.110000000E-04  0.00000E+00  9.000E+00
     -11     1     3     3     0     0 -5.199698720E-01  9.612454306E-03  7.806298550E-01  9.380001593E-01  5.110000000E-04  0.00000E+00  9.000E+00
       2     1     1     2   501     0 -1.865842194E-01  5.635481094E-02  1.674754678E-01  2.569777577E-01  0.000000000E+00  0.00000E+00  9.000E+00
      -2     1     1     2     0   502  4.621200365E-01 -7.766022334E-02 -7.024982868E-01  8.444464941E-01  0.000000000E+00  0.00000E+00  9.000E+00
#rwgt            1          23   567823.85571485921                3    16371065           0
<weights>
0.11145E+08
0.13073E+08
0.93321E+07
0.12438E+08
0.94603E+07
0.11364E+08
0.10542E+08
0.11003E+08
0.11301E+08
0.10815E+08
0.10774E+08
0.10974E+08
0.10957E+08
0.10822E+08
0.10789E+08
0.11177E+08
0.11309E+08
0.11520E+08
0.11491E+08
0.11475E+08
0.11499E+08
0.11547E+08
0.11543E+08
0.11444E+08
0.11304E+08
0.11381E+08
0.11120E+08
0.11513E+08
0.11328E+08
0.11537E+08
0.11543E+08
0.11159E+08
0.11254E+08
0.11145E+08
0.11177E+08
0.11010E+08
0.11314E+08
0.11185E+08
0.11027E+08
0.11175E+08
0.11116E+08
0.11224E+08
0.11062E+08
0.11534E+08
0.10790E+08
</weights>
</event>
<event>
      7  10001  1.11453E+07  2.14872E+00 -1.00000E+00  3.41147E-01
      -2    -1     0     0     0   501  0.000000000E+00  0.000000000E+00  7.779175838E-01  7.779175838E-01  0.000000000E+00  0.00000E+00  9.000E+00
      -1    -1     0     0     0   502  0.000000000E+00  0.000000000E+00 -1.708063060E+01  1.708063060E+01  0.000000000E+00  0.00000E+00  9.000E+00
      23     2     1     2     0     0 -4.847745715E-02  4.430378533E-01 -8.420135649E+00  8.529803599E+00  1.288500091E+00  0.00000E+00  9.000E+00
      11     1     3     3     0     0 -1.737086727E-01  1.030758918E-01 -7.860740084E+00  7.863334806E+00  5.110000000E-04  0.00000E+00  9.000E+00
     -11     1     3     3     0     0  1.252312156E-01  3.399619614E-01 -5.593955647E-01  6.664687926E-01  5.110000000E-04  0.00000E+00  9.000E+00
      -1     1     1     2     0   501 -9.754714303E-02 -2.586786862E+00 -5.728386518E+00  6.286127092E+00  0.000000000E+00  0.00000E+00  9.000E+00
      -2     1     1     2     0   502  1.460246002E-01  2.143749009E+00 -2.154190852E+00  3.042617496E+00  0.000000000E+00  0.00000E+00  9.000E+00
#rwgt            1          15   112753.13146811722                3    16374034           0
<weights>
0.11145E+08
0.14887E+08
0.77124E+07
0.10672E+08
0.10621E+08
0.13996E+08
0.65025E+07
0.11128E+08
0.11153E+08
0.10766E+08
0.10754E+08
0.10979E+08
0.10874E+08
0.10774E+08
0.10761E+08
0.11073E+08
0.11465E+08
0.11565E+08
0.11517E+08
0.11483E+08
0.11556E+08
0.11558E+08
0.11613E+08
0.11441E+08
0.11363E+08
0.11552E+08
0.10957E+08
0.11571E+08
0.11212E+08
0.11538E+08
0.11555E+08
0.11088E+08
0.11329E+08
0.11236E+08
0.11087E+08
0.10781E+08
0.11530E+08
0.11051E+08
0.11081E+08
0.11181E+08
0.11100E+08
0.11316E+08
0.10963E+08
0.11564E+08
0.10762E+08
</weights>
</event>
<event>
      6  10001 -1.11453E+07  8.94427E-01 -1.00000E+00  3.38466E-01
       2    -1     0     0   501     0  0.000000000E+00  0.000000000E+00  7.463339476E+01  7.463339476E+01  0.000000000E+00  0.00000E+00  9.000E+00
      21    -1     0     0   502   501  0.000000000E+00  0.000000000E+00 -2.370846659E-02  2.370846659E-02  0.000000000E+00  0.00000E+00  9.000E+00
      23     2     1     2     0     0  5.784085693E-01 -4.563017535E-01  6.692538019E+01  6.693756127E+01  1.042989518E+00  0.00000E+00  9.000E+00
      11     1     3     3     0     0  2.187394070E-01  2.755065912E-01  9.708987784E+00  9.715358710E+00  5.110000000E-04  0.00000E+00  9.000E+00
     -11     1     3     3     0     0  3.596691623E-01 -7.318083447E-01  5.721639241E+01  5.722220256E+01  5.110000000E-04  0.00000E+00  9.000E+00
       2     1     1     2   502     0 -5.784085693E-01  4.563017535E-01  7.684306102E+00  7.719541957E+00  0.000000000E+00  0.00000E+00  9.000E+00
#rwgt            1          24  -25593567.316159099                3    16378794           0
<weights>
-.11145E+08
-.12623E+08
-.94987E+07
-.15356E+08
-.76113E+07
-.91616E+07
-.13909E+08
-.11170E+08
-.11121E+08
-.10822E+08
-.10811E+08
-.10961E+08
-.11005E+08
-.10839E+08
-.10822E+08
-.11226E+08
-.11212E+08
-.11464E+08
-.11507E+08
-.11495E+08
-.11440E+08
-.11504E+08
-.11523E+08
-.11416E+08
-.11328E+08
-.11287E+08
-.11360E+08
-.11437E+08
-.11374E+08
-.11482E+08
-.11516E+08
-.11184E+08
-.11217E+08
-.11138E+08
-.11178E+08
-.11207E+08
-.11103E+08
-.11135E+08
-.11081E+08
-.11167E+08
-.11127E+08
-.11186E+08
-.11103E+08
-.11508E+08
-.10812E+08
</weights>
</event>
<event>
      6  10001 -1.11453E+07  8.94427E-01 -1.00000E+00  5.65435E-01
      21    -1     0     0   502   501  0.000000000E+00  0.000000000E+00  1.295889876E-02  1.295889876E-02  0.000000000E+00  0.00000E+00  9.000E+00
       3    -1     0     0   501     0  0.000000000E+00  0.000000000E+00 -1.258465938E+02  1.258465938E+02  0.000000000E+00  0.00000E+00  9.000E+00
      23     2     1     2     0     0  1.190784021E-01  2.858968152E-01 -1.215964891E+02  1.216111034E+02  1.859677172E+00  0.00000E+00  9.000E+00
      11     1     3     3     0     0  2.208401876E-01 -7.021173632E-01 -7.718386518E+01  7.718737451E+01  5.110000000E-04  0.00000E+00  9.000E+00
     -11     1     3     3     0     0 -1.017617855E-01  9.880141784E-01 -4.441262393E+01  4.442372893E+01  5.110000000E-04  0.00000E+00  9.000E+00
       3     1     1     2   502     0 -1.190784021E-01 -2.858968152E-01 -4.237145817E+00  4.248449285E+00  0.000000000E+00  0.00000E+00  9.000E+00
#rwgt            1          18  -656463.24615703872                3    16381444           0
<weights>
-.11145E+08
-.11909E+08
-.10214E+08
-.14474E+08
-.81838E+07
-.91702E+07
-.13910E+08
-.11084E+08
-.11202E+08
-.11192E+08
-.11305E+08
-.11454E+08
-.10860E+08
-.11279E+08
-.11238E+08
-.12684E+08
-.91497E+07
-.11672E+08
-.10160E+08
-.10107E+08
-.11663E+08
-.10998E+08
-.11012E+08
-.98462E+07
-.12349E+08
-.11309E+08
-.10168E+08
-.10046E+08
-.12221E+08
-.10931E+08
-.11088E+08
-.11254E+08
-.10994E+08
-.11211E+08
-.11088E+08
-.11155E+08
-.11130E+08
-.11134E+08
-.11185E+08
-.11085E+08
-.11188E+08
-.11251E+08
-.11032E+08
-.11021E+08
-.11250E+08
</weights>
</event>
<event>
      6  10001 -1.11453E+07  8.94427E-01 -1.00000E+00  3.70778E-01
       2    -1     0     0   501     0  0.000000000E+00  0.000000000E+00  1.689422150E+02  1.689422150E+02  0.000000000E+00  0.00000E+00  9.000E+00
      21    -1     0     0   502   501  0.000000000E+00  0.000000000E+00 -1.565680812E-02  1.565680812E-02  0.000000000E+00  0.00000E+00  9.000E+00
      23     2     1     2     0     0  9.450340627E-01  2.534518667E-01  1.480168281E+02  1.480252623E+02  1.240789488E+00  0.00000E+00  9.000E+00
      11     1     3     3     0     0  1.371148004E-01  7.413787619E-02  1.992078238E+00  1.998167375E+00  5.110000000E-04  0.00000E+00  9.000E+00
     -11     1     3     3     0     0  8.079192623E-01  1.793139905E-01  1.460247499E+02  1.460270950E+02  5.110000000E-04  0.00000E+00  9.000E+00
       2     1     1     2   502     0 -9.450340627E-01 -2.534518667E-01  2.090973002E+01  2.093260942E+01  0.000000000E+00  0.00000E+00  9.000E+00
#rwgt            1          24  -13634427.857494710                3    16383545           0
<weights>
-.11145E+08
-.12354E+08
-.97560E+07
-.15007E+08
-.78167E+07
-.91754E+07
-.13910E+08
-.11173E+08
-.11118E+08
-.10826E+08
-.10818E+08
-.10963E+08
-.11009E+08
-.10844E+08
-.10828E+08
-.11226E+08
-.11208E+08
-.11458E+08
-.11498E+08
-.11486E+08
-.11435E+08
-.11496E+08
-.11516E+08
-.11404E+08
-.11328E+08
-.11286E+08
-.11338E+08
-.11430E+08
-.11368E+08
-.11473E+08
-.11509E+08
-.11182E+08
-.11217E+08
-.11138E+08
-.11177E+08
-.11210E+08
-.11100E+08
-.11127E+08
-.11089E+08
-.11165E+08
-.11129E+08
-.11184E+08
-.11104E+08
-.11501E+08
-.10818E+08
</weights>
</event>
<event>
      6  10001 -1.11453E+07  8.94427E-01 -1.00000E+00  3.51197E-01
      -2    -1     0     0     0   502  0.000000000E+00  0.000000000E+00  2.467164504E-02  2.467164504E-02  0.000000000E+00  0.00000E+00  9.000E+00
      21    -1     0     0   502   501  0.000000000E+00  0.000000000E+00 -1.061231394E+02  1.061231394E+02  0.000000000E+00  0.00000E+00  9.000E+00
      23     2     1     2     0     0 -1.856406639E-01  6.653050842E-01 -2.701353658E+01  2.705986359E+01  1.424066632E+00  0.00000E+00  9.000E+00
      11     1     3     3     0     0 -6.351641951E-01  4.159807547E-01 -7.251010117E+00  7.290653024E+00  5.110000000E-04  0.00000E+00  9.000E+00
     -11     1     3     3     0     0  4.495235313E-01  2.493243295E-01 -1.976252646E+01  1.976921056E+01  5.110000000E-04  0.00000E+00  9.000E+00
      -2     1     1     2     0   501  1.856406639E-01 -6.653050842E-01 -7.908493119E+01  7.908794747E+01  0.000000000E+00  0.00000E+00  9.000E+00
#rwgt            1           7  -1395740.4032930178                3    16386530           0
<weights>
-.11145E+08
-.12139E+08
-.99173E+07
-.14754E+08
-.79463E+07
-.91702E+07
-.13910E+08
-.11159E+08
-.11131E+08
-.11177E+08
-.11208E+08
-.11074E+08
-.11277E+08
-.11232E+08
-.11225E+08
-.11150E+08
-.11053E+08
-.11068E+08
-.10996E+08
-.10991E+08
-.11080E+08
-.11049E+08
-.11001E+08
-.11096E+08
-.11066E+08
-.11098E+08
-.11136E+08
-.11059E+08
-.11049E+08
-.11024E+08
-.11040E+08
-.11105E+08
-.11156E+08
-.11149E+08
-.11133E+08
-.11208E+08
-.11084E+08
-.10962E+08
-.11392E+08
-.11043E+08
-.11240E+08
-.11102E+08
-.11192E+08
-.11068E+08
-.11201E+08
</weights>
</event>
<event>
      6  10001  1.11453E+07  8.94427E-01 -1.00000E+00  6.07640E-01
       2    -1     0     0   501     0  0.000000000E+00  0.000000000E+00  3.434722402E-02  3.434722402E-02  0.000000000E+00  0.00000E+00  9.000E+00
      21    -1     0     0   502   501  0.000000000E+00  0.000000000E+00 -2.036641511E+01  2.036641511E+01  0.000000000E+00  0.00000E+00  9.000E+00
      23     2     1     2     0     0 -9.034952419E-02  2.757602762E-01 -9.993877587E+00  1.005850023E+01  1.100741064E+00  0.00000E+00  9.000E+00
      11     1     3     3     0     0 -4.658694394E-01  7.716253164E-02 -8.254647805E+00  8.268143627E+00  5.110000000E-04  0.00000E+00  9.000E+00
     -11     1     3     3     0     0  3.755199152E-01  1.985977445E-01 -1.739229782E+00  1.790356603E+00  5.110000000E-04  0.00000E+00  9.000E+00
       2     1     1     2   502     0  9.034952419E-02 -2.757602762E-01 -1.033819030E+01  1.034226210E+01  0.000000000E+00  0.00000E+00  9.000E+00
#rwgt            1          24   482529.86221409304                3    16388180           0
<weights>
0.11145E+08
0.13816E+08
0.84949E+07
0.12139E+08
0.97012E+07
0.12243E+08
0.91921E+07
0.11314E+08
0.10972E+08
0.10456E+08
0.10517E+08
0.10776E+08
0.10868E+08
0.10495E+08
0.10514E+08
0.11281E+08
0.11312E+08
0.11765E+08
0.11872E+08
0.11868E+08
0.11716E+08
0.11811E+08
0.11963E+08
0.11416E+08
0.11733E+08
0.11638E+08
0.10961E+08
0.11736E+08
0.11494E+08
0.11737E+08
0.11850E+08
0.11166E+08
0.11333E+08
0.11150E+08
0.11176E+08
0.11403E+08
0.10923E+08
0.10847E+08
0.11181E+08
0.11202E+08
0.11096E+08
0.11201E+08
0.11088E+08
0.11866E+08
0.10481E+08
</weights>
</event>
<event>
      6  10001  1.11453E+07  8.94427E-01 -1.00000E+00  6.06689E-01
       1    -1     0     0   501     0  0.000000000E+00  0.000000000E+00  5.035291441E-01  5.035291441E-01  0.000000000E+00  0.00000E+00  9.000E+00
      -1    -1     0     0     0   502  0.000000000E+00  0.000000000E+00 -4.792377599E+00  4.792377599E+00  0.000000000E+00  0.00000E+00  9.000E+00
      23     2     1     2     0     0  5.115721336E-01 -1.185721800E-01 -4.548642226E+00  4.710024321E+00  1.103819547E+00  0.00000E+00  9.000E+00
      11     1     3     3     0     0 -1.554193811E-01  3.527087593E-01 -1.884593852E+00  1.923604143E+00  5.110000000E-04  0.00000E+00  9.000E+00
     -11     1     3     3     0     0  6.669915148E-01 -4.712809393E-01 -2.664048374E+00  2.786420177E+00  5.110000000E-04  0.00000E+00  9.000E+00
      21     1     1     2   501   502 -5.115721336E-01  1.185721800E-01  2.597937708E-01  5.858824226E-01  1.786586465E-08  0.00000E+00  9.000E+00
#rwgt            1          21   141722.40548801469                3    16443561           0
<weights>
0.11145E+08
0.12376E+08
0.98327E+07
0.13267E+08
0.89208E+07
0.10310E+08
0.12160E+08
0.11102E+08
0.11184E+08
0.10844E+08
0.10829E+08
0.10985E+08
0.10981E+08
0.10858E+08
0.10840E+08
0.11154E+08
0.11305E+08
0.11471E+08
0.11436E+08
0.11420E+08
0.11455E+08
0.11480E+08
0.11498E+08
0.11364E+08
0.11321E+08
0.11403E+08
0.11037E+08
0.11464E+08
0.11259E+08
0.11461E+08
0.11479E+08
0.11134E+08
0.11259E+08
0.11168E+08
0.11148E+08
0.11013E+08
0.11300E+08
0.11092E+08
0.11100E+08
0.11160E+08
0.11128E+08
0.11227E+08
0.11059E+08
0.11482E+08
0.10836E+08
</weights>
</event>
<event>
      6  10001 -1.11453E+07  8.94427E-01 -1.00000E+00  1.64380E-01
      21    -1     0     0   502   501  0.000000000E+00  0.000000000E+00  2.357175380E-02  2.357175380E-02  0.000000000E+00  0.00000E+00  9.000E+00
       2    -1     0     0   501     0  0.000000000E+00  0.000000000E+00 -7.511102851E+01  7.511102851E+01  0.000000000E+00  0.00000E+00  9.000E+00
      23     2     1     2     0     0  3.097621191E-01  6.168668727E-02 -5.160841149E+01  5.165343070E+01  2.132840355E+00  0.00000E+00  9.000E+00
      11     1     3     3     0     0  7.671476406E-01 -5.618445311E-01 -1.204940006E+01  1.208686175E+01  5.110000000E-04  0.00000E+00  9.000E+00
     -11     1     3     3     0     0 -4.573855216E-01  6.235312183E-01 -3.955901143E+01  3.956656895E+01  5.110000000E-04  0.00000E+00  9.000E+00
       2     1     1     2   502     0 -3.097621191E-01 -6.168668727E-02 -2.347904526E+01  2.348116956E+01  0.000000000E+00  0.00000E+00  9.000E+00
#rwgt            1          17  -2893697.2740916335                3    16446808           0
<weights>
-.11145E+08
-.12830E+08
-.92756E+07
-.15593E+08
-.74321E+07
-.91702E+07
-.13910E+08
-.11167E+08
-.11124E+08
-.11125E+08
-.11152E+08
-.11162E+08
-.11093E+08
-.11149E+08
-.11152E+08
-.11145E+08
-.11112E+08
-.11069E+08
-.11215E+08
-.11224E+08
-.11062E+08
-.11135E+08
-.11127E+08
-.11235E+08
-.11043E+08
-.11074E+08
-.11175E+08
-.11252E+08
-.10948E+08
-.11142E+08
-.11120E+08
-.11135E+08
-.11150E+08
-.11076E+08
-.11233E+08
-.11130E+08
-.11156E+08
-.11088E+08
-.11214E+08
-.11088E+08
-.11191E+08
-.11200E+08
-.11087E+08
-.11142E+08
-.11143E+08
</weights>
</event>
<event>
      7  10001  1.11453E+07  1.74867E+00 -1.00000E+00  3.80847E-01
      -3    -1     0     0     0   502  0.000000000E+00  0.000000000E+00  6.501075512E-02  6.501075512E-02  0.000000000E+00  0.00000E+00  9.000E+00
      21    -1     0     0   511   501  0.000000000E+00  0.000000000E+00 -1.625133451E+02  1.625133451E+02  0.000000000E+00  0.00000E+00  9.000E+00
      23     2     1     2     0     0 -4.335192195E-01  1.312479026E+00 -1.633465650E+01  1.643466988E+01  1.169115550E+00  0.00000E+00  9.000E+00
      11     1     3     3     0     0 -5.691056145E-04  2.350061906E-01 -4.503879917E-01  5.080136196E-01  5.110000000E-04  0.00000E+00  9.000E+00
     -11     1     3     3     0     0 -4.329501139E-01  1.077472835E+00 -1.588426851E+01  1.592665626E+01  5.110000000E-04  0.00000E+00  9.000E+00
      -3     1     1     2     0   501  1.163939182E+00  2.763310877E-01 -6.706847876E+01  6.707914696E+01  0.000000000E+00  0.00000E+00  9.000E+00
      21     1     1     2   511   502 -7.304199622E-01 -1.588810114E+00 -7.904519912E+01  7.906453905E+01  1.348699152E-06  0.00000E+00  9.000E+00
#rwgt            1           5   187696.32215023457                3    16448412           0
<weights>
0.11145E+08
0.11872E+08
0.10262E+08
0.12607E+08
0.94812E+07
0.10435E+08
0.11968E+08
0.11267E+08
0.11026E+08
0.10875E+08
0.11010E+08
0.10953E+08
0.11137E+08
0.10983E+08
0.11005E+08
0.11203E+08
0.11081E+08
0.11267E+08
0.11254E+08
0.11245E+08
0.11264E+08
0.11262E+08
0.11290E+08
0.11128E+08
0.11344E+08
0.11280E+08
0.11057E+08
0.11228E+08
0.11152E+08
0.11181E+08
0.11270E+08
0.11065E+08
0.11267E+08
0.11181E+08
0.11107E+08
0.11338E+08
0.10972E+08
0.10669E+08
0.11665E+08
0.11061E+08
0.11222E+08
0.11135E+08
0.11156E+08
0.11330E+08
0.10952E+08
</weights>
</event>
<event>
      7  10001  1.11453E+07  4.08716E+00 -1.00000E+00  2.58174E-01
      -2    -1     0     0     0   502  0.000000000E+00  0.000000000E+00  1.114593269E+02  1.114593269E+02  0.000000000E+00  0.00000E+00  9.000E+00
      21    -1     0     0   502   511  0.000000000E+00  0.000000000E+00 -3.908756735E+00  3.908756735E+00  0.000000000E+00  0.00000E+00  9.000E+00
      23     2     1     2     0     0  1.079788044E+01  7.379559882E+00  3.343047668E+01  3.677937693E+01  8.004603038E+00  0.00000E+00  9.000E+00
      11     1     3     3     0     0  7.437024803E+00  3.865719737E+00  1.100822544E+01  1.383597321E+01  5.110000000E-04  0.00000E+00  9.000E+00
     -11     1     3     3     0     0  3.360855641E+00  3.513840146E+00  2.242225124E+01  2.294340372E+01  5.110000000E-04  0.00000E+00  9.000E+00
      -2     1     1     2     0   501 -6.782161160E+00 -8.140382829E+00  7.372502487E+01  7.448250019E+01  0.000000000E+00  0.00000E+00  9.000E+00
      21     1     1     2   501   511 -4.015719284E+00  7.608229470E-01  3.950686357E-01  4.106206540E+00  1.748903780E-07  0.00000E+00  9.000E+00
#rwgt            1           7   651335.92018735164                3    16453601           0
<weights>
0.11145E+08
0.11340E+08
0.10934E+08
0.11863E+08
0.10265E+08
0.10584E+08
0.11739E+08
0.11205E+08
0.11082E+08
0.10812E+08
0.10816E+08
0.10951E+08
0.11014E+08
0.10839E+08
0.10825E+08
0.11234E+08
0.11197E+08
0.11468E+08
0.11477E+08
0.11473E+08
0.11442E+08
0.11497E+08
0.11519E+08
0.11340E+08
0.11367E+08
0.11316E+08
0.11149E+08
0.11436E+08
0.11353E+08
0.11468E+08
0.11509E+08
0.11178E+08
0.11220E+08
0.11138E+08
0.11176E+08
0.11241E+08
0.11067E+08
0.11084E+08
0.11124E+08
0.11160E+08
0.11133E+08
0.11180E+08
0.11109E+08
0.11507E+08
0.10811E+08
</weights>
</event>
<event>
      7  10001  1.11453E+07  4.32968E+00 -1.00000E+00  2.52743E-01
      -4    -1     0     0     0   502  0.000000000E+00  0.000000000E+00  5.516448039E-01  5.516448039E-01  0.000000000E+00  0.00000E+00  9.000E+00
      21    -1     0     0   502   501  0.000000000E+00  0.000000000E+00 -2.823125755E+01  2.823125755E+01  0.000000000E+00  0.00000E+00  9.000E+00
      23     2     1     2     0     0  2.220394107E-02  3.258153321E-01 -9.067364338E-01  1.958439981E+00  1.704895174E+00  0.00000E+00  9.000E+00
      11     1     3     3     0     0  6.826125511E-01 -1.545762204E-01 -9.021099759E-01  1.141777725E+00  5.110000000E-04  0.00000E+00  9.000E+00
     -11     1     3     3     0     0 -6.604086100E-01  4.803915525E-01 -4.626457947E-03  8.166622564E-01  5.110000000E-04  0.00000E+00  9.000E+00
      -4     1     1     2     0   511 -1.653221977E-01  4.123770355E-01 -2.449439206E+00  2.489405284E+00  0.000000000E+00  0.00000E+00  9.000E+00
      21     1     1     2   511   501  1.431182566E-01 -7.381923676E-01 -2.432343711E+01  2.433505709E+01  3.371747881E-07  0.00000E+00  9.000E+00
#rwgt            2          41   304137.89144430368                3    16500978           0
<weights>
0.11145E+08
0.10982E+08
0.11058E+08
0.13347E+08
0.88606E+07
0.91702E+07
0.13910E+08
0.11217E+08
0.11073E+08
0.10944E+08
0.11001E+08
0.11002E+08
0.11119E+08
0.10990E+08
0.11003E+08
0.11196E+08
0.11128E+08
0.11281E+08
0.11287E+08
0.11282E+08
0.11273E+08
0.11281E+08
0.11322E+08
0.11168E+08
0.11314E+08
0.11269E+08
0.11066E+08
0.11254E+08
0.11194E+08
0.11237E+08
0.11291E+08
0.11118E+08
0.11217E+08
0.11154E+08
0.11140E+08
0.11265E+08
0.11038E+08
0.10905E+08
0.11352E+08
0.11105E+08
0.11182E+08
0.11147E+08
0.11144E+08
0.11318E+08
0.10977E+08
</weights>
</event>
<event>
      7  10001  1.11453E+07  2.63101E+00 -1.00000E+00  3.09660E-01
      -1    -1     0     0     0   501  0.000000000E+00  0.000000000E+00  2.013518224E+01  2.013518224E+01  0.000000000E+00  0.00000E+00  9.000E+00
       2    -1     0     0   501     0  0.000000000E+00  0.000000000E+00 -2.530781233E+02  2.530781233E+02  0.000000000E+00  0.00000E+00  9.000E+00
      23     2     1     2     0     0 -8.369825123E-01  1.155522762E+00 -2.324347543E+02  2.324463831E+02  1.835814407E+00  0.00000E+00  9.000E+00
      11     1     3     3     0     0 -3.847225251E-01  2.079761751E-01 -1.828085063E+02  1.828090295E+02  5.110000000E-04  0.00000E+00  9.000E+00
     -11     1     3     3     0     0 -4.522599872E-01  9.475465873E-01 -4.962624801E+01  4.963735363E+01  5.110000000E-04  0.00000E+00  9.000E+00
       2     1     1     2   502     0 -5.349974286E-01 -3.400493377E+00 -2.040681407E+01  2.069511145E+01  0.000000000E+00  0.00000E+00  9.000E+00
      -1     1     1     2     0   502  1.371979941E+00  2.244970614E+00  1.989862740E+01  2.007181094E+01  0.000000000E+00  0.00000E+00  9.000E+00
#rwgt            1          17   16700470.101923857                3    16501913           0
<weights>
0.11145E+08
0.12079E+08
0.10007E+08
0.12927E+08
0.92703E+07
0.10406E+08
0.12013E+08
0.11131E+08
0.11159E+08
0.11164E+08
0.11164E+08
0.11094E+08
0.11203E+08
0.11164E+08
0.11163E+08
0.11335E+08
0.10853E+08
0.11252E+08
0.10946E+08
0.10925E+08
0.11262E+08
0.11109E+08
0.11150E+08
0.11180E+08
0.11064E+08
0.11133E+08
0.11142E+08
0.11025E+08
0.11219E+08
0.11106E+08
0.11146E+08
0.11049E+08
0.11235E+08
0.11236E+08
0.11019E+08
0.11143E+08
0.11144E+08
0.11166E+08
0.11123E+08
0.11166E+08
0.11123E+08
0.11167E+08
0.11122E+08
0.11124E+08
0.11165E+08
</weights>
</event>
<event>
      7  10001  1.11453E+07  9.14588E-01 -1.00000E+00  5.98331E-01
      21    -1     0     0   502   501  0.000000000E+00  0.000000000E+00  1.189821634E-01  1.189821634E-01  0.000000000E+00  0.00000E+00  9.000E+00
      -2    -1     0     0     0   502  0.000000000E+00  0.000000000E+00 -3.134294175E+01  3.134294175E+01  0.000000000E+00  0.00000E+00  9.000E+00
      23     2     1     2     0     0  7.549178278E-02  2.410129133E-01 -2.304587853E+01  2.325505826E+01  3.101843218E+00  0.00000E+00  9.000E+00
      11     1     3     3     0     0 -9.254264513E-01  4.168501927E-01 -2.032923927E+01  2.035456085E+01  5.110000000E-04  0.00000E+00  9.000E+00
     -11     1     3     3     0     0  1.000918234E+00 -1.758372794E-01 -2.716639261E+00  2.900497405E+00  5.110000000E-04  0.00000E+00  9.000E+00
      -2     1     1     2     0   511 -1.496750323E-01 -5.367752271E-02 -4.703365468E-01  4.964880250E-01  0.000000000E+00  0.00000E+00  9.000E+00
      21     1     1     2   511   501  7.418324954E-02 -1.873353906E-01 -7.707744516E+00  7.710377631E+00  0.000000000E+00  0.00000E+00  9.000E+00
#rwgt            2         160   11247754.041559175                3    16518284           0
<weights>
0.11145E+08
0.11485E+08
0.10540E+08
0.13959E+08
0.84452E+07
0.91702E+07
0.13910E+08
0.11223E+08
0.11067E+08
0.10952E+08
0.11014E+08
0.11024E+08
0.11068E+08
0.11003E+08
0.11014E+08
0.11108E+08
0.11234E+08
0.11291E+08
0.11244E+08
0.11221E+08
0.11295E+08
0.11265E+08
0.11303E+08
0.11210E+08
0.11261E+08
0.11307E+08
0.11048E+08
0.11264E+08
0.11105E+08
0.11226E+08
0.11270E+08
0.11084E+08
0.11246E+08
0.11235E+08
0.11063E+08
0.11061E+08
0.11232E+08
0.10899E+08
0.11371E+08
0.11108E+08
0.11170E+08
0.11233E+08
0.11051E+08
0.11301E+08
0.10992E+08
</weights>
</event>
<event>
      7  10001  1.11453E+07  3.94183E+00 -1.00000E+00  2.61758E-01
      21    -1     0     0   502   501  0.000000000E+00  0.000000000E+00  3.505464942E+02  3.505464942E+02  0.000000000E+00  0.00000E+00  9.000E+00
      -4    -1     0     0     0   502  0.000000000E+00  0.000000000E+00 -2.469565998E-01  2.469565998E-01  0.000000000E+00  0.00000E+00  9.000E+00
      23     2     1     2     0     0 -4.630052064E+00  1.681198250E+00  1.244035894E+02  1.247956582E+02  8.569681931E+00  0.00000E+00  9.000E+00
      11     1     3     3     0     0 -5.749205990E+00  2.456506314E+00  1.204885083E+02  1.206506048E+02  5.110000000E-04  0.00000E+00  9.000E+00
     -11     1     3     3     0     0  1.119153925E+00 -7.753080639E-01  3.915081035E+00  4.145053422E+00  5.110000000E-04  0.00000E+00  9.000E+00
      -4     1     1     2     0   512  3.886430027E+00  9.878511982E-01  1.301074165E+02  1.301691976E+02  0.000000000E+00  0.00000E+00  9.000E+00
      21     1     1     2   512   501  7.436220373E-01 -2.669049448E+00  9.578853173E+01  9.582859494E+01  1.907348633E-06  0.00000E+00  9.000E+00
#rwgt            1          12   109331.86415939261                3    16520967           0
<weights>
0.11145E+08
0.11203E+08
0.10981E+08
0.12176E+08
0.99693E+07
0.10249E+08
0.12254E+08
0.11184E+08
0.11103E+08
0.10792E+08
0.10769E+08
0.10944E+08
0.10989E+08
0.10805E+08
0.10782E+08
0.11235E+08
0.11229E+08
0.11512E+08
0.11535E+08
0.11527E+08
0.11484E+08
0.11554E+08
0.11567E+08
0.11417E+08
0.11359E+08
0.11325E+08
0.11241E+08
0.11488E+08
0.11398E+08
0.11535E+08
0.11566E+08
0.11199E+08
0.11217E+08
0.11131E+08
0.11188E+08
0.11221E+08
0.11089E+08
0.11178E+08
0.11034E+08
0.11180E+08
0.11116E+08
0.11187E+08
0.11102E+08
0.11551E+08
0.10774E+08
</weights>
</event>
<event>
      7  10001  1.11453E+07  1.15149E+00 -1.00000E+00  5.10860E-01
       2    -1     0     0   501     0  0.000000000E+00  0.000000000E+00  2.931815658E-01  2.931815658E-01  0.000000000E+00  0.00000E+00  9.000E+00
      21    -1     0     0   511   501  0.000000000E+00  0.000000000E+00 -7.196038924E+02  7.196038924E+02  0.000000000E+00  0.00000E+00  9.000E+00
      23     2     1     2     0     0 -7.342339945E-01  9.268451392E-03 -1.662998951E+00  2.187825226E+00  1.217303679E+00  0.00000E+00  9.000E+00
      11     1     3     3     0     0 -1.049843056E+00 -9.419906272E-02 -1.452291562E+00  1.794490164E+00  5.110000000E-04  0.00000E+00  9.000E+00
     -11     1     3     3     0     0  3.156090615E-01  1.034675141E-01 -2.107073886E-01  3.933350619E-01  5.110000000E-04  0.00000E+00  9.000E+00
       2     1     1     2   502     0 -3.336715453E-01 -4.399623878E-01 -2.484992463E+00  2.545602314E+00  0.000000000E+00  0.00000E+00  9.000E+00
      21     1     1     2   511   502  1.067905540E+00  4.306939365E-01 -7.151627195E+02  7.151636465E+02  7.629394531E-06  0.00000E+00  9.000E+00
#rwgt            1          24   390852.98028920637                3    16560930           0
<weights>
0.11145E+08
0.16337E+08
0.63655E+07
0.10142E+08
0.10812E+08
0.15429E+08
0.43018E+07
0.11216E+08
0.11063E+08
0.10387E+08
0.10265E+08
0.10761E+08
0.10738E+08
0.10359E+08
0.10289E+08
0.11314E+08
0.11459E+08
0.12032E+08
0.12063E+08
0.12063E+08
0.11958E+08
0.12136E+08
0.12140E+08
0.11769E+08
0.11636E+08
0.11637E+08
0.11168E+08
0.12033E+08
0.11750E+08
0.12134E+08
0.12155E+08
0.11328E+08
0.11262E+08
0.11095E+08
0.11270E+08
0.11270E+08
0.11057E+08
0.11500E+08
0.10565E+08
0.11322E+08
0.10993E+08
0.11241E+08
0.11045E+08
0.12085E+08
0.10300E+08
</weights>
</event>
<event>
      7  10001  1.11453E+07  8.94427E-01 -1.00000E+00  6.07649E-01
      -2    -1     0     0     0   502  0.000000000E+00  0.000000000E+00  1.054785575E+02  1.054785575E+02  0.000000000E+00  0.00000E+00  9.000E+00
      21    -1     0     0   501   511  0.000000000E+00  0.000000000E+00 -3.259755660E-01  3.259755660E-01  0.000000000E+00  0.00000E+00  9.000E+00
      23     2     1     2     0     0  1.543689209E+00 -3.554868968E-01  7.971939460E+01  7.974638880E+01  1.339889527E+00  0.00000E+00  9.000E+00
      11     1     3     3     0     0  8.589413846E-01 -8.434092553E-01  5.340249215E+01  5.341605833E+01  5.110000000E-04  0.00000E+00  9.000E+00
     -11     1     3     3     0     0  6.847478243E-01  4.879223585E-01  2.631690246E+01  2.633033048E+01  5.110000000E-04  0.00000E+00  9.000E+00
      21     1     1     2   501   502 -1.879627229E+00  4.645953968E-02  2.538858886E+00  3.159265967E+00  5.136039239E-07  0.00000E+00  9.000E+00
      -2     1     1     2     0   511  3.359380200E-01  3.090273571E-01  2.289432848E+01  2.289887833E+01  0.000000000E+00  0.00000E+00  9.000E+00
#rwgt            2         102   855606.24584190676                3    16609973           0
<weights>
0.11145E+08
0.10759E+08
0.11348E+08
0.13076E+08
0.90926E+07
0.91702E+07
0.13910E+08
0.11188E+08
0.11100E+08
0.10835E+08
0.10832E+08
0.10965E+08
0.11019E+08
0.10856E+08
0.10842E+08
0.11227E+08
0.11198E+08
0.11447E+08
0.11471E+08
0.11464E+08
0.11424E+08
0.11479E+08
0.11501E+08
0.11361E+08
0.11337E+08
0.11290E+08
0.11229E+08
0.11418E+08
0.11352E+08
0.11455E+08
0.11492E+08
0.11178E+08
0.11215E+08
0.11138E+08
0.11175E+08
0.11222E+08
0.11086E+08
0.11108E+08
0.11109E+08
0.11160E+08
0.11133E+08
0.11180E+08
0.11109E+08
0.11487E+08
0.10830E+08
</weights>
</event>
<event>
      6  10001  1.11453E+07  8.94427E-01 -1.00000E+00  5.97660E-01
      21    -1     0     0   502   501  0.000000000E+00  0.000000000E+00  5.303693104E+01  5.303693104E+01  0.000000000E+00  0.00000E+00  9.000E+00
      -2    -1     0     0     0   502  0.000000000E+00  0.000000000E+00 -4.955997990E-02  4.955997990E-02  0.000000000E+00  0.00000E+00  9.000E+00
      23     2     1     2     0     0 -8.663105434E-01 -1.013546785E+00  2.498088336E+01  2.504828273E+01  1.262601690E+00  0.00000E+00  9.000E+00
      11     1     3     3     0     0 -7.773266660E-01 -1.173660043E+00  2.436755331E+01  2.440818242E+01  5.110000000E-04  0.00000E+00  9.000E+00
     -11     1     3     3     0     0 -8.898387742E-02  1.601132584E-01  6.133300535E-01  6.401003059E-01  5.110000000E-04  0.00000E+00  9.000E+00
      -2     1     1     2     0   501  8.663105434E-01  1.013546785E+00  2.800648770E+01  2.803820830E+01  0.000000000E+00  0.00000E+00  9.000E+00
#rwgt            1          14   594210.83330398728                3    16610072           0
<weights>
0.11145E+08
0.12555E+08
0.97038E+07
0.12568E+08
0.95097E+07
0.10978E+08
0.11134E+08
0.10932E+08
0.11446E+08
0.10798E+08
0.10751E+08
0.10967E+08
0.10949E+08
0.10803E+08
0.10766E+08
0.11193E+08
0.11298E+08
0.11525E+08
0.11556E+08
0.11533E+08
0.11503E+08
0.11575E+08
0.11568E+08
0.11542E+08
0.11277E+08
0.11330E+08
0.11409E+08
0.11517E+08
0.11386E+08
0.11566E+08
0.11573E+08
0.11176E+08
0.11247E+08
0.11134E+08
0.11192E+08
0.11041E+08
0.11292E+08
0.11219E+08
0.11003E+08
0.11182E+08
0.11112E+08
0.11216E+08
0.11071E+08
0.11559E+08
0.10768E+08
</weights>
</event>
<event>
      7  10001  1.11453E+07  2.28762E+00 -1.00000E+00  3.30734E-01
      21    -1     0     0   502   501  0.000000000E+00  0.000000000E+00  4.699148039E-02  4.699148039E-02  0.000000000E+00  0.00000E+00  9.000E+00
      -2    -1     0     0     0   502  0.000000000E+00  0.000000000E+00 -8.369747693E+01  8.369747693E+01  0.000000000E+00  0.00000E+00  9.000E+00
      23     2     1     2     0     0 -9.418524726E-01  1.959127741E-01 -6.824923344E+01  6.826526317E+01  1.123753545E+00  0.00000E+00  9.000E+00
      11     1     3     3     0     0 -1.043171414E+00  5.011088445E-01 -5.407139662E+01  5.408377991E+01  5.110000000E-04  0.00000E+00  9.000E+00
     -11     1     3     3     0     0  1.013189415E-01 -3.051960704E-01 -1.417783683E+01  1.418148326E+01  5.110000000E-04  0.00000E+00  9.000E+00
      -2     1     1     2     0   511  2.831325831E-01 -3.125144654E-01 -1.227222635E+01  1.227946941E+01  0.000000000E+00  0.00000E+00  9.000E+00
      21     1     1     2   511   501  6.587198895E-01  1.166016913E-01 -3.129025654E+00  3.199735831E+00  1.332800375E-07  0.00000E+00  9.000E+00
#rwgt            2         160   4639924.2590111792                3    16632427           0
<weights>
0.11145E+08
0.11274E+08
0.10785E+08
0.13702E+08
0.86418E+07
0.91702E+07
0.13910E+08
0.11187E+08
0.11103E+08
0.11126E+08
0.11174E+08
0.11083E+08
0.11153E+08
0.11178E+08
0.11179E+08
0.11065E+08
0.11193E+08
0.11152E+08
0.11021E+08
0.10996E+08
0.11169E+08
0.11095E+08
0.11084E+08
0.11151E+08
0.11092E+08
0.11148E+08
0.11112E+08
0.11105E+08
0.11003E+08
0.11076E+08
0.11099E+08
0.11117E+08
0.11158E+08
0.11281E+08
0.11011E+08
0.11058E+08
0.11215E+08
0.11012E+08
0.11313E+08
0.11092E+08
0.11180E+08
0.11265E+08
0.11017E+08
0.11115E+08
0.11162E+08
</weights>
</event>
<event>
      6  10001 -1.11453E+07  8.94427E-01 -1.00000E+00  2.61738E-01
      21    -1     0     0   502   501  0.000000000E+00  0.000000000E+00  1.502379211E-02  1.502379211E-02  0.000000000E+00  0.00000E+00  9.000E+00
      -4    -1     0     0     0   502  0.000000000E+00  0.000000000E+00 -3.675713763E+02  3.675713763E+02  0.000000000E+00  0.00000E+00  9.000E+00
      23     2     1     2     0     0  1.502690112E-01 -3.137312015E-01 -3.654231956E+02  3.654250657E+02  1.116126434E+00  0.00000E+00  9.000E+00
      11     1     3     3     0     0  5.512314070E-01 -4.642729341E-01 -2.602799714E+02  2.602809692E+02  5.110000000E-04  0.00000E+00  9.000E+00
     -11     1     3     3     0     0 -4.009623957E-01  1.505417326E-01 -1.051432242E+02  1.051440965E+02  5.110000000E-04  0.00000E+00  9.000E+00
      -4     1     1     2     0   501 -1.502690112E-01  3.137312015E-01 -2.133156984E+00  2.161334487E+00  0.000000000E+00  0.00000E+00  9.000E+00
#rwgt            1          12  -1207065.4671321467                3    16632678           0
<weights>
-.11145E+08
-.12048E+08
-.10008E+08
-.14643E+08
-.80188E+07
-.91702E+07
-.13910E+08
-.10743E+08
-.11545E+08
-.12200E+08
-.11642E+08
-.11304E+08
-.11851E+08
-.11791E+08
-.11791E+08
-.10963E+08
-.11179E+08
-.10530E+08
-.10598E+08
-.10617E+08
-.10564E+08
-.10497E+08
-.10496E+08
-.11149E+08
-.10328E+08
-.10587E+08
-.11384E+08
-.10718E+08
-.10819E+08
-.10719E+08
-.10485E+08
-.11401E+08
-.10685E+08
-.10962E+08
-.11337E+08
-.10769E+08
-.11480E+08
-.12294E+08
-.10019E+08
-.10899E+08
-.11381E+08
-.10952E+08
-.11353E+08
-.10373E+08
-.11912E+08
</weights>
</event>
<event>
      7  10001  1.11453E+07  1.94266E+00 -1.00000E+00  3.59459E-01
      21    -1     0     0   502   501  0.000000000E+00  0.000000000E+00  7.547923977E-02  7.547923977E-02  0.000000000E+00  0.00000E+00  9.000E+00
       2    -1     0     0   501     0  0.000000000E+00  0.000000000E+00 -1.652847886E+02  1.652847886E+02  0.000000000E+00  0.00000E+00  9.000E+00
      23     2     1     2     0     0 -1.912194356E-01 -4.450007401E-01 -1.625213416E+02  1.625273151E+02  1.306558850E+00  0.00000E+00  9.000E+00
      11     1     3     3     0     0 -5.054242932E-01 -1.861927144E-05 -1.329252450E+02  1.329262059E+02  5.110000000E-04  0.00000E+00  9.000E+00
     -11     1     3     3     0     0  3.142048576E-01 -4.449821208E-01 -2.959609651E+01  2.960110915E+01  5.110000000E-04  0.00000E+00  9.000E+00
       2     1     1     2   511     0  6.901185653E-02 -1.893192461E-01 -1.105469454E+00  1.123684621E+00  0.000000000E+00  0.00000E+00  9.000E+00
      21     1     1     2   502   511  1.222075791E-01  6.343199862E-01 -1.582498355E+00  1.709268142E+00  1.444721179E-07  0.00000E+00  9.000E+00
#rwgt            2         189   2753570.0577357756                3    16633028           0
<weights>
0.11145E+08
0.11017E+08
0.11097E+08
0.13389E+08
0.88917E+07
0.91702E+07
0.13910E+08
0.11133E+08
0.11156E+08
0.11171E+08
0.11172E+08
0.11123E+08
0.11177E+08
0.11174E+08
0.11172E+08
0.11273E+08
0.10932E+08
0.11182E+08
0.11016E+08
0.11006E+08
0.11186E+08
0.11104E+08
0.11127E+08
0.11199E+08
0.11036E+08
0.11101E+08
0.11159E+08
0.11087E+08
0.11128E+08
0.11109E+08
0.11125E+08
0.11083E+08
0.11197E+08
0.11181E+08
0.11090E+08
0.11140E+08
0.11146E+08
0.11166E+08
0.11126E+08
0.11141E+08
0.11145E+08
0.11174E+08
0.11114E+08
0.11114E+08
0.11173E+08
</weights>
</event>
<event>
      7  10001  1.11453E+07  8.94427E-01 -1.00000E+00  6.07649E-01
      -2    -1     0     0     0   502  0.000000000E+00  0.000000000E+00  9.674699745E+01  9.674699745E+01  0.000000000E+00  0.00000E+00  9.000E+00
       2    -1     0     0   502     0  0.000000000E+00  0.000000000E+00 -1.155693927E-01  1.155693927E-01  0.000000000E+00  0.00000E+00  9.000E+00
      23     2     1     2     0     0  6.333282997E-01  1.792221676E-01  1.309369570E+01  1.316280010E+01  1.175250580E+00  0.00000E+00  9.000E+00
      11     1     3     3     0     0  1.869649286E-01  1.086260099E-01  3.521151913E-01  4.132080149E-01  5.110000000E-04  0.00000E+00  9.000E+00
     -11     1     3     3     0     0  4.463633711E-01  7.059615777E-02  1.274158051E+01  1.274959208E+01  5.110000000E-04  0.00000E+00  9.000E+00
      -2     1     1     2     0   501 -8.422436420E-01  5.326493514E-01  8.185123262E+01  8.185729883E+01  0.000000000E+00  0.00000E+00  9.000E+00
       2     1     1     2   501     0  2.089153423E-01 -7.118715190E-01  1.686499738E+00  1.842467923E+00  0.000000000E+00  0.00000E+00  9.000E+00
#rwgt            2         110   158845.05125486833                3    16640727           0
<weights>
0.11145E+08
0.11117E+08
0.11010E+08
0.13511E+08
0.88221E+07
0.91702E+07
0.13910E+08
0.11059E+08
0.11264E+08
0.10819E+08
0.10795E+08
0.10968E+08
0.10983E+08
0.10832E+08
0.10807E+08
0.11205E+08
0.11253E+08
0.11484E+08
0.11506E+08
0.11492E+08
0.11462E+08
0.11524E+08
0.11530E+08
0.11437E+08
0.11310E+08
0.11316E+08
0.11270E+08
0.11470E+08
0.11358E+08
0.11507E+08
0.11528E+08
0.11175E+08
0.11232E+08
0.11136E+08
0.11184E+08
0.11123E+08
0.11197E+08
0.11160E+08
0.11059E+08
0.11170E+08
0.11124E+08
0.11200E+08
0.11088E+08
0.11519E+08
0.10802E+08
</weights>
</event>
<event>
      7  10001  1.11453E+07  2.89540E+01 -1.00000E+00  1.54028E-01
      21    -1     0     0   502   501  0.000000000E+00  0.000000000E+00  2.467680094E-01  2.467680094E-01  0.000000000E+00  0.00000E+00  9.000E+00
       1    -1     0     0   501     0  0.000000000E+00  0.000000000E+00 -9.008720118E+02  9.008720118E+02  0.000000000E+00  0.00000E+00  9.000E+00
      23     2     1     2     0     0  1.967926791E+00 -1.412820297E-01 -1.570883666E+02  1.571062370E+02  1.312282183E+00  0.00000E+00  9.000E+00
      11     1     3     3     0     0  1.182180689E+00 -3.861954117E-01 -1.285206287E+02  1.285266458E+02  5.110000000E-04  0.00000E+00  9.000E+00
     -11     1     3     3     0     0  7.857461014E-01  2.449133820E-01 -2.856773794E+01  2.857959115E+01  5.110000000E-04  0.00000E+00  9.000E+00
       1     1     1     2   511     0  3.142959018E+00 -6.730119291E+00 -6.592288523E+02  6.592706973E+02  0.000000000E+00  0.00000E+00  9.000E+00
      21     1     1     2   502   511 -5.110885809E+00  6.871401321E+00 -8.430802490E+01  8.474184546E+01  1.907348633E-06  0.00000E+00  9.000E+00
#rwgt            2         186   42428632.738747537                3    16644911           0
<weights>
0.11145E+08
0.98775E+07
0.12563E+08
0.12005E+08
0.10067E+08
0.91702E+07
0.13910E+08
0.11444E+08
0.10868E+08
0.10912E+08
0.11531E+08
0.13148E+08
0.92810E+07
0.11158E+08
0.11159E+08
0.11290E+08
0.10640E+08
0.93791E+07
0.13667E+08
0.14197E+08
0.91056E+07
0.11252E+08
0.10975E+08
0.11932E+08
0.10294E+08
0.95214E+07
0.12226E+08
0.14036E+08
0.83421E+07
0.11556E+08
0.10822E+08
0.10782E+08
0.11521E+08
0.94144E+07
0.13254E+08
0.11068E+08
0.11217E+08
0.11064E+08
0.11264E+08
0.11463E+08
0.10867E+08
0.11089E+08
0.11204E+08
0.11127E+08
0.11165E+08
</weights>
</event>
<event>
      7  10001  1.11453E+07  3.19359E+00 -1.00000E+00  2.84671E-01
      21    -1     0     0   502   501  0.000000000E+00  0.000000000E+00  2.140103097E+01  2.140103097E+01  0.000000000E+00  0.00000E+00  9.000E+00
      -2    -1     0     0     0   502  0.000000000E+00  0.000000000E+00 -4.987419139E-01  4.987419139E-01  0.000000000E+00  0.00000E+00  9.000E+00
      23     2     1     2     0     0 -6.327090693E-01 -4.386035496E-01  1.117060290E+00  1.970907069E+00  1.429670292E+00  0.00000E+00  9.000E+00
      11     1     3     3     0     0 -8.907856639E-02  4.752248685E-01  6.485916851E-01  8.089778129E-01  5.110000000E-04  0.00000E+00  9.000E+00
     -11     1     3     3     0     0 -5.436305030E-01 -9.138284181E-01  4.684686050E-01  1.161929256E+00  5.110000000E-04  0.00000E+00  9.000E+00
      -2     1     1     2     0   512  1.064103108E+00  4.028997091E-01  4.640710828E+00  4.778162889E+00  0.000000000E+00  0.00000E+00  9.000E+00
      21     1     1     2   512   501 -4.313940390E-01  3.570384043E-02  1.514451794E+01  1.515070293E+01  1.685873940E-07  0.00000E+00  9.000E+00
#rwgt            2         160   469716.36686827097                3    16646587           0
<weights>
0.11145E+08
0.11095E+08
0.10992E+08
0.13485E+08
0.88075E+07
0.91702E+07
0.13910E+08
0.11074E+08
0.11231E+08
0.10833E+08
0.10813E+08
0.10973E+08
0.10993E+08
0.10848E+08
0.10825E+08
0.11199E+08
0.11250E+08
0.11474E+08
0.11469E+08
0.11458E+08
0.11452E+08
0.11502E+08
0.11510E+08
0.11394E+08
0.11314E+08
0.11332E+08
0.11163E+08
0.11455E+08
0.11330E+08
0.11483E+08
0.11504E+08
0.11164E+08
0.11236E+08
0.11142E+08
0.11176E+08
0.11112E+08
0.11205E+08
0.11137E+08
0.11081E+08
0.11164E+08
0.11128E+08
0.11200E+08
0.11087E+08
0.11500E+08
0.10820E+08
</weights>
</event>
<event>
      6  10001 -1.11453E+07  8.94427E-01 -1.00000E+00  2.60208E-01
       2    -1     0     0   501     0  0.000000000E+00  0.000000000E+00  3.174653555E+02  3.174653555E+02  0.000000000E+00  0.00000E+00  9.000E+00
      21    -1     0     0   502   501  0.000000000E+00  0.000000000E+00 -1.924467708E-02  1.924467708E-02  0.000000000E+00  0.00000E+00  9.000E+00
      23     2     1     2     0     0  1.746141237E-01 -3.289370276E-01  3.153406879E+02  3.153464946E+02  1.877109010E+00  0.00000E+00  9.000E+00
      11     1     3     3     0     0  2.448323228E-01  6.144890403E-01  2.225761770E+02  2.225771599E+02  5.110000000E-04  0.00000E+00  9.000E+00
     -11     1     3     3     0     0 -7.021819908E-02 -9.434260679E-01  9.276451089E+01  9.276933472E+01  5.110000000E-04  0.00000E+00  9.000E+00
       2     1     1     2   502     0 -1.746141237E-01  3.289370276E-01  2.105422903E+00  2.138105531E+00  0.000000000E+00  0.00000E+00  9.000E+00
#rwgt            1          24  -45440434.816019118                3    16647009           0
<weights>
-.11145E+08
-.12145E+08
-.99053E+07
-.14767E+08
-.79369E+07
-.91660E+07
-.13909E+08
-.11178E+08
-.11114E+08
-.10843E+08
-.10842E+08
-.10970E+08
-.11022E+08
-.10865E+08
-.10852E+08
-.11223E+08
-.11195E+08
-.11434E+08
-.11468E+08
-.11458E+08
-.11413E+08
-.11468E+08
-.11488E+08
-.11376E+08
-.11322E+08
-.11275E+08
-.11312E+08
-.11404E+08
-.11348E+08
-.11443E+08
-.11480E+08
-.11175E+08
-.11216E+08
-.11140E+08
-.11172E+08
-.11213E+08
-.11095E+08
-.11102E+08
-.11122E+08
-.11157E+08
-.11136E+08
-.11181E+08
-.11108E+08
-.11476E+08
-.10840E+08
</weights>
</event>
<event>
      6  10001 -1.11453E+07  8.94427E-01 -1.00000E+00  1.51663E-01
      21    -1     0     0   502   501  0.000000000E+00  0.000000000E+00  1.063338021E-02  1.063338021E-02  0.000000000E+00  0.00000E+00  9.000E+00
      -3    -1     0     0     0   502  0.000000000E+00  0.000000000E+00 -1.229379655E+02  1.229379655E+02  0.000000000E+00  0.00000E+00  9.000E+00
      23     2     1     2     0     0  2.588562498E-01 -4.180940494E-02 -1.115153529E+02  1.115336077E+02  2.000738165E+00  0.00000E+00  9.000E+00
      11     1     3     3     0     0  1.145536694E-01 -9.315377177E-01 -7.958862447E+01  7.959415827E+01  5.110000000E-04  0.00000E+00  9.000E+00
     -11     1     3     3     0     0  1.443025804E-01  8.897283127E-01 -3.192672844E+01  3.193944941E+01  5.110000000E-04  0.00000E+00  9.000E+00
      -3     1     1     2     0   501 -2.588562498E-01  4.180940494E-02 -1.141197924E+01  1.141499122E+01  0.000000000E+00  0.00000E+00  9.000E+00
#rwgt            1          13  -712875.84338404099                3    16648031           0
<weights>
-.11147E+08
-.11937E+08
-.10171E+08
-.14535E+08
-.81507E+07
-.91539E+07
-.13910E+08
-.11089E+08
-.11201E+08
-.11187E+08
-.11303E+08
-.11451E+08
-.10861E+08
-.11276E+08
-.11235E+08
-.12669E+08
-.91675E+07
-.11666E+08
-.10178E+08
-.10131E+08
-.11651E+08
-.11003E+08
-.11019E+08
-.98707E+07
-.12320E+08
-.11254E+08
-.10203E+08
-.10054E+08
-.12220E+08
-.10935E+08
-.11093E+08
-.11253E+08
-.10999E+08
-.11213E+08
-.11088E+08
-.11159E+08
-.11129E+08
-.11127E+08
-.11196E+08
-.11087E+08
-.11189E+08
-.11252E+08
-.11033E+08
-.11028E+08
-.11247E+08
</weights>
</event>
<event>
      7  10001  1.11453E+07  2.18926E+00 -1.00000E+00  3.37967E-01
       2    -1     0     0   501     0  0.000000000E+00  0.000000000E+00  5.398812717E+01  5.398812717E+01  0.000000000E+00  0.00000E+00  9.000E+00
      21    -1     0     0   502   511  0.000000000E+00  0.000000000E+00 -4.852757764E+00  4.852757764E+00  0.000000000E+00  0.00000E+00  9.000E+00
      23     2     1     2     0     0 -1.285657564E+00  2.072903741E-01  4.931061172E+01  4.939492405E+01  2.574142352E+00  0.00000E+00  9.000E+00
      11     1     3     3     0     0 -1.352944220E+00 -3.977498618E-01  4.639542254E+01  4.641684927E+01  5.110000000E-04  0.00000E+00  9.000E+00
     -11     1     3     3     0     0  6.728665637E-02  6.050402359E-01  2.915189179E+00  2.978074779E+00  5.110000000E-04  0.00000E+00  9.000E+00
       2     1     1     2   502     0  5.116088551E-01  1.840565983E+00  4.166455177E+00  4.583533081E+00  0.000000000E+00  0.00000E+00  9.000E+00
      21     1     1     2   501   511  7.740487086E-01 -2.047856357E+00 -4.341697490E+00  4.862427805E+00  1.788139343E-07  0.00000E+00  9.000E+00
#rwgt            1          24   3204491.2062900960                3    16648814           0
<weights>
0.11145E+08
0.12326E+08
0.98925E+07
0.11924E+08
0.99385E+07
0.11247E+08
0.10721E+08
0.11175E+08
0.11114E+08
0.10725E+08
0.10696E+08
0.10921E+08
0.10942E+08
0.10734E+08
0.10708E+08
0.11243E+08
0.11262E+08
0.11579E+08
0.11637E+08
0.11625E+08
0.11546E+08
0.11637E+08
0.11657E+08
0.11510E+08
0.11384E+08
0.11341E+08
0.11378E+08
0.11555E+08
0.11461E+08
0.11617E+08
0.11652E+08
0.11211E+08
0.11232E+08
0.11134E+08
0.11192E+08
0.11212E+08
0.11103E+08
0.11205E+08
0.10994E+08
0.11199E+08
0.11099E+08
0.11201E+08
0.11087E+08
0.11632E+08
0.10702E+08
</weights>
</event>
<event>
      6  10001 -1.11453E+07  8.94427E-01 -1.00000E+00  4.28083E-01
      21    -1     0     0   502   501  0.000000000E+00  0.000000000E+00  1.454517806E-01  1.454517806E-01  0.000000000E+00  0.00000E+00  9.000E+00
      -4    -1     0     0     0   502  0.000000000E+00  0.000000000E+00 -6.416180761E+00  6.416180761E+00  0.000000000E+00  0.00000E+00  9.000E+00
      23     2     1     2     0     0 -4.643040705E-01 -1.165846240E-01 -5.325290323E+00  5.501904039E+00  1.297328326E+00  0.00000E+00  9.000E+00
      11     1     3     3     0     0 -5.563338693E-01 -3.570821837E-01 -5.145625254E+00  5.187916208E+00  5.110000000E-04  0.00000E+00  9.000E+00
     -11     1     3     3     0     0  9.202979876E-02  2.404975597E-01 -1.796650685E-01  3.139878311E-01  5.110000000E-04  0.00000E+00  9.000E+00
      -4     1     1     2     0   501  4.643040705E-01  1.165846240E-01 -9.454386573E-01  1.059728503E+00  0.000000000E+00  0.00000E+00  9.000E+00
#rwgt            1          12  -863562.87965384964                3    16709030           0
<weights>
-.11145E+08
-.10893E+08
-.10514E+08
-.18317E+08
-.57116E+07
-.60323E+07
-.18727E+08
-.11213E+08
-.11077E+08
-.10960E+08
-.11015E+08
-.11010E+08
-.11126E+08
-.11005E+08
-.11018E+08
-.11195E+08
-.11119E+08
-.11265E+08
-.11271E+08
-.11267E+08
-.11257E+08
-.11263E+08
-.11304E+08
-.11164E+08
-.11295E+08
-.11243E+08
-.11083E+08
-.11235E+08
-.11189E+08
-.11221E+08
-.11274E+08
-.11117E+08
-.11213E+08
-.11155E+08
-.11138E+08
-.11256E+08
-.11046E+08
-.10904E+08
-.11352E+08
-.11100E+08
-.11186E+08
-.11146E+08
-.11145E+08
-.11301E+08
-.10992E+08
</weights>
</event>
<event>
      7  10001  1.11453E+07  1.01504E+00 -1.00000E+00  5.56837E-01
      -3    -1     0     0     0   502  0.000000000E+00  0.000000000E+00  2.421236626E+01  2.421236626E+01  0.000000000E+00  0.00000E+00  9.000E+00
      21    -1     0     0   502   501  0.000000000E+00  0.000000000E+00 -5.384122316E-02  5.384122316E-02  0.000000000E+00  0.00000E+00  9.000E+00
      23     2     1     2     0     0 -3.440089222E-01  3.222793335E-01  1.671377410E+01  1.677702426E+01  1.376986723E+00  0.00000E+00  9.000E+00
      11     1     3     3     0     0 -1.389496439E-01 -2.097717724E-02  1.546836836E+01  1.546900666E+01  5.110000000E-04  0.00000E+00  9.000E+00
     -11     1     3     3     0     0 -2.050592783E-01  3.432565107E-01  1.245405740E+00  1.308017606E+00  5.110000000E-04  0.00000E+00  9.000E+00
      -3     1     1     2     0   511  7.533956962E-02  4.963801721E-02  5.054004329E+00  5.054809565E+00  0.000000000E+00  0.00000E+00  9.000E+00
      21     1     1     2   511   501  2.686693526E-01 -3.719173507E-01  2.390746613E+00  2.434373658E+00  0.000000000E+00  0.00000E+00  9.000E+00
#rwgt            2          71   4279099.4538583374                3    16717704           0
<weights>
0.11145E+08
0.11844E+08
0.10135E+08
0.14395E+08
0.81211E+07
0.91702E+07
0.13910E+08
0.11171E+08
0.11120E+08
0.10818E+08
0.10805E+08
0.10960E+08
0.11002E+08
0.10835E+08
0.10816E+08
0.11227E+08
0.11214E+08
0.11470E+08
0.11512E+08
0.11500E+08
0.11446E+08
0.11511E+08
0.11529E+08
0.11418E+08
0.11331E+08
0.11290E+08
0.11348E+08
0.11443E+08
0.11378E+08
0.11489E+08
0.11523E+08
0.11186E+08
0.11217E+08
0.11137E+08
0.11179E+08
0.11208E+08
0.11102E+08
0.11141E+08
0.11074E+08
0.11169E+08
0.11125E+08
0.11186E+08
0.11102E+08
0.11514E+08
0.10807E+08
</weights>
</event>
<event>
      6  10001  1.11453E+07  8.94427E-01 -1.00000E+00  6.07492E-01
      -3    -1     0     0     0   502  0.000000000E+00  0.000000000E+00  1.949170801E+00  1.949170801E+00  0.000000000E+00  0.00000E+00  9.000E+00
       3    -1     0     0   501     0  0.000000000E+00  0.000000000E+00 -8.558038467E+00  8.558038467E+00  0.000000000E+00  0.00000E+00  9.000E+00
      23     2     1     2     0     0  4.448715215E-01  4.160498871E-01 -6.711130004E+00  9.889580119E+00  7.238336882E+00  0.00000E+00  9.000E+00
      11     1     3     3     0     0 -1.727450801E-01 -2.224800353E+00  4.105590479E-01  2.268950521E+00  5.110000000E-04  0.00000E+00  9.000E+00
     -11     1     3     3     0     0  6.176166016E-01  2.640850240E+00 -7.121689052E+00  7.620629598E+00  5.110000000E-04  0.00000E+00  9.000E+00
      21     1     1     2   501   502 -4.448715215E-01 -4.160498871E-01  1.022623380E-01  6.176291484E-01  2.099094478E-08  0.00000E+00  9.000E+00
#rwgt            1           6   72302.014552764158                3    16718715           0
<weights>
0.11145E+08
0.17777E+08
0.54646E+07
0.55613E+07
0.14484E+08
0.19832E+08
-.24569E+07
0.11175E+08
0.11103E+08
0.10464E+08
0.10534E+08
0.11317E+08
0.10244E+08
0.10485E+08
0.10474E+08
0.11985E+08
0.99981E+07
0.10968E+08
0.13246E+08
0.13151E+08
0.10918E+08
0.11792E+08
0.12170E+08
0.13971E+08
0.94815E+07
0.67207E+07
0.19361E+08
0.10255E+08
0.13812E+08
0.11745E+08
0.12085E+08
0.11483E+08
0.11042E+08
0.11219E+08
0.11140E+08
0.11301E+08
0.11014E+08
0.11395E+08
0.10597E+08
0.11340E+08
0.10958E+08
0.11391E+08
0.10884E+08
0.11893E+08
0.10475E+08
</weights>
</event>
<event>
      7  10001  1.11453E+07  2.79964E+00 -1.00000E+00  3.01181E-01
       4    -1     0     0   501     0  0.000000000E+00  0.000000000E+00  1.549271752E+00  1.549271752E+00  0.000000000E+00  0.00000E+00  9.000E+00
      21    -1     0     0   511   501  0.000000000E+00  0.000000000E+00 -4.672616103E+01  4.672616103E+01  0.000000000E+00  0.00000E+00  9.000E+00
      23     2     1     2     0     0 -4.035357812E-01  1.022927273E+00  6.058748092E-01  1.714799632E+00  1.168003494E+00  0.00000E+00  9.000E+00
      11     1     3     3     0     0 -1.122821803E-01 -2.517217141E-01  2.166847121E-01  3.506046705E-01  5.110000000E-04  0.00000E+00  9.000E+00
     -11     1     3     3     0     0 -2.912536009E-01  1.274648987E+00  3.891900971E-01  1.364194962E+00  5.110000000E-04  0.00000E+00  9.000E+00
       4     1     1     2   502     0 -1.891156757E+00  5.809353696E-01 -2.503170162E+00  3.190583119E+00  0.000000000E+00  0.00000E+00  9.000E+00
      21     1     1     2   511   502  2.294692538E+00 -1.603862643E+00 -4.327959392E+01  4.337005003E+01  4.768371582E-07  0.00000E+00  9.000E+00
#rwgt            1          28   1100290.8048380991                3    16722681           0
<weights>
0.11145E+08
0.13529E+08
0.88997E+07
0.12074E+08
0.96386E+07
0.11964E+08
0.96206E+07
0.11211E+08
0.11073E+08
0.10654E+08
0.10616E+08
0.10881E+08
0.10912E+08
0.10657E+08
0.10629E+08
0.11260E+08
0.11294E+08
0.11671E+08
0.11703E+08
0.11699E+08
0.11628E+08
0.11727E+08
0.11756E+08
0.11497E+08
0.11472E+08
0.11433E+08
0.11165E+08
0.11650E+08
0.11498E+08
0.11706E+08
0.11745E+08
0.11227E+08
0.11242E+08
0.11124E+08
0.11207E+08
0.11254E+08
0.11062E+08
0.11221E+08
0.10932E+08
0.11219E+08
0.11082E+08
0.11203E+08
0.11086E+08
0.11719E+08
0.10623E+08
</weights>
</event>
<event>
      7  10001  1.11453E+07  2.32803E+00 -1.00000E+00  3.27939E-01
       4    -1     0     0   501     0  0.000000000E+00  0.000000000E+00  4.312392877E+00  4.312392877E+00  0.000000000E+00  0.00000E+00  9.000E+00
      21    -1     0     0   502   501  0.000000000E+00  0.000000000E+00 -6.304820593E+00  6.304820593E+00  0.000000000E+00  0.00000E+00  9.000E+00
      23     2     1     2     0     0 -1.902431902E+00 -4.464532767E-01  3.755496710E+00  4.407373171E+00  1.225811999E+00  0.00000E+00  9.000E+00
      11     1     3     3     0     0 -1.849746077E+00 -3.421969356E-01  3.831245154E+00  4.268149363E+00  5.110000000E-04  0.00000E+00  9.000E+00
     -11     1     3     3     0     0 -5.268582466E-02 -1.042563411E-01 -7.574844392E-02  1.392238078E-01  5.110000000E-04  0.00000E+00  9.000E+00
       4     1     1     2   511     0  6.020814676E-01 -4.202612804E-01 -1.268873376E+00  1.466001802E+00  0.000000000E+00  0.00000E+00  9.000E+00
      21     1     1     2   502   511  1.300350434E+00  8.667145571E-01 -4.479051050E+00  4.743838497E+00  6.769786293E-07  0.00000E+00  9.000E+00
#rwgt            1          28   2714748.2545146118                3    16749906           0
<weights>
0.11145E+08
0.12225E+08
0.99034E+07
0.12865E+08
0.92275E+07
0.10519E+08
0.11840E+08
0.11212E+08
0.11074E+08
0.10809E+08
0.10812E+08
0.10946E+08
0.11017E+08
0.10831E+08
0.10821E+08
0.11234E+08
0.11204E+08
0.11474E+08
0.11484E+08
0.11481E+08
0.11447E+08
0.11499E+08
0.11533E+08
0.11321E+08
0.11391E+08
0.11345E+08
0.11093E+08
0.11446E+08
0.11346E+08
0.11470E+08
0.11513E+08
0.11178E+08
0.11221E+08
0.11135E+08
0.11178E+08
0.11255E+08
0.11052E+08
0.11072E+08
0.11112E+08
0.11161E+08
0.11132E+08
0.11177E+08
0.11113E+08
0.11512E+08
0.10807E+08
</weights>
</event>
<event>
      7  10001  1.11453E+07  4.33108E+00 -1.00000E+00  2.52714E-01
      -1    -1     0     0     0   502  0.000000000E+00  0.000000000E+00  1.739266165E+02  1.739266165E+02  0.000000000E+00  0.00000E+00  9.000E+00
      21    -1     0     0   512   501  0.000000000E+00  0.000000000E+00 -2.595212244E+01  2.595212244E+01  0.000000000E+00  0.00000E+00  9.000E+00
      23     2     1     2     0     0  1.273577710E+00 -2.394505656E-01  8.993182514E+01  8.995353405E+01  1.491904218E+00  0.00000E+00  9.000E+00
      11     1     3     3     0     0  4.971915332E-01  4.397538806E-01  1.507986852E+01  1.509446977E+01  5.110000000E-04  0.00000E+00  9.000E+00
     -11     1     3     3     0     0  7.763861772E-01 -6.792044462E-01  7.485195662E+01  7.485906427E+01  5.110000000E-04  0.00000E+00  9.000E+00
      -1     1     1     2     0   501  1.847007265E+00 -2.763914167E+00  8.376996451E+01  8.383589692E+01  0.000000000E+00  0.00000E+00  9.000E+00
      21     1     1     2   512   502 -3.120584976E+00  3.003364733E+00 -2.572729560E+01  2.608930795E+01  1.066240300E-06  0.00000E+00  9.000E+00
#rwgt            1           9   314572.70490028773                3    16870430           0
<weights>
0.11145E+08
0.13126E+08
0.90155E+07
0.13456E+08
0.87897E+07
0.10831E+08
0.11361E+08
0.11143E+08
0.11154E+08
0.10786E+08
0.10755E+08
0.10949E+08
0.10971E+08
0.10795E+08
0.10768E+08
0.11229E+08
0.11245E+08
0.11514E+08
0.11584E+08
0.11565E+08
0.11488E+08
0.11570E+08
0.11581E+08
0.11520E+08
0.11323E+08
0.11295E+08
0.11565E+08
0.11493E+08
0.11426E+08
0.11555E+08
0.11582E+08
0.11202E+08
0.11220E+08
0.11134E+08
0.11189E+08
0.11185E+08
0.11129E+08
0.11206E+08
0.11010E+08
0.11185E+08
0.11111E+08
0.11196E+08
0.11092E+08
0.11564E+08
0.10763E+08
</weights>
</event>
<event>
      6  10001 -1.11453E+07  8.94427E-01 -1.00000E+00  5.32375E-01
      -2    -1     0     0     0   502  0.000000000E+00  0.000000000E+00  8.135359954E+01  8.135359954E+01  0.000000000E+00  0.00000E+00  9.000E+00
      21    -1     0     0   502   501  0.000000000E+00  0.000000000E+00 -1.679022044E-02  1.679022044E-02  0.000000000E+00  0.00000E+00  9.000E+00
      23     2     1     2     0     0 -6.983664133E-01 -2.299145624E-01  5.635243320E+01  5.637519770E+01  1.423239659E+00  0.00000E+00  9.000E+00
      11     1     3     3     0     0 -4.733655809E-01 -5.199532500E-01  1.161833085E+01  1.163958927E+01  5.110000000E-04  0.00000E+00  9.000E+00
     -11     1     3     3     0     0 -2.250008324E-01  2.900386876E-01  4.473410235E+01  4.473560843E+01  5.110000000E-04  0.00000E+00  9.000E+00
      -2     1     1     2     0   501  6.983664133E-01  2.299145624E-01  2.498437611E+01  2.499519206E+01  0.000000000E+00  0.00000E+00  9.000E+00
#rwgt            1           7  -2436858.5726925875                3    16872265           0
<weights>
-.11145E+08
-.12558E+08
-.95566E+07
-.15247E+08
-.76566E+07
-.91812E+07
-.13911E+08
-.11173E+08
-.11119E+08
-.10825E+08
-.10816E+08
-.10962E+08
-.11008E+08
-.10843E+08
-.10826E+08
-.11226E+08
-.11209E+08
-.11460E+08
-.11500E+08
-.11488E+08
-.11436E+08
-.11498E+08
-.11518E+08
-.11407E+08
-.11329E+08
-.11286E+08
-.11342E+08
-.11432E+08
-.11369E+08
-.11476E+08
-.11511E+08
-.11183E+08
-.11217E+08
-.11138E+08
-.11177E+08
-.11209E+08
-.11100E+08
-.11129E+08
-.11087E+08
-.11166E+08
-.11128E+08
-.11185E+08
-.11104E+08
-.11503E+08
-.10816E+08
</weights>
</event>
<event>
      6  10001 -1.11453E+07  8.94427E-01 -1.00000E+00  1.71540E-01
      -3    -1     0     0     0   502  0.000000000E+00  0.000000000E+00  1.916107836E-02  1.916107836E-02  0.000000000E+00  0.00000E+00  9.000E+00
      21    -1     0     0   502   501  0.000000000E+00  0.000000000E+00 -4.351507211E+01  4.351507211E+01  0.000000000E+00  0.00000E+00  9.000E+00
      23     2     1     2     0     0  2.530127376E-01 -3.547992178E-01 -2.602742366E+01  2.606031122E+01  1.234155799E+00  0.00000E+00  9.000E+00
      11     1     3     3     0     0 -3.943038065E-01 -3.966778601E-01 -7.189714745E+00  7.211437248E+00  5.110000000E-04  0.00000E+00  9.000E+00
     -11     1     3     3     0     0  6.473165442E-01  4.187864230E-02 -1.883770892E+01  1.884887397E+01  5.110000000E-04  0.00000E+00  9.000E+00
      -3     1     1     2     0   501 -2.530127376E-01  3.547992178E-01 -1.746848737E+01  1.747392197E+01  0.000000000E+00  0.00000E+00  9.000E+00
#rwgt            1           5  -264373.88682356436                3    16873686           0
<weights>
-.11145E+08
-.12687E+08
-.93898E+07
-.15420E+08
-.75236E+07
-.91702E+07
-.13910E+08
-.11213E+08
-.11078E+08
-.10987E+08
-.11052E+08
-.11017E+08
-.11152E+08
-.11040E+08
-.11054E+08
-.11186E+08
-.11105E+08
-.11229E+08
-.11221E+08
-.11216E+08
-.11226E+08
-.11223E+08
-.11250E+08
-.11138E+08
-.11274E+08
-.11238E+08
-.11074E+08
-.11204E+08
-.11154E+08
-.11178E+08
-.11230E+08
-.11105E+08
-.11213E+08
-.11158E+08
-.11133E+08
-.11264E+08
-.11038E+08
-.10879E+08
-.11414E+08
-.11088E+08
-.11198E+08
-.11137E+08
-.11155E+08
-.11263E+08
-.11025E+08
</weights>
</event>
<event>
      6  10001 -1.11453E+07  8.94427E-01 -1.00000E+00  1.84278E-01
      21    -1     0     0   502   501  0.000000000E+00  0.000000000E+00  3.635467862E-03  3.635467862E-03  0.000000000E+00  0.00000E+00  9.000E+00
       4    -1     0     0   501     0  0.000000000E+00  0.000000000E+00 -1.487529900E+02  1.487529900E+02  0.000000000E+00  0.00000E+00  9.000E+00
      23     2     1     2     0     0  4.170723136E-02 -2.634430225E-01 -1.120013635E+02  1.120076664E+02  1.157921820E+00  0.00000E+00  9.000E+00
      11     1     3     3     0     0 -5.332046957E-01 -1.723446383E-02 -3.944235231E+01  3.944596000E+01  5.110000000E-04  0.00000E+00  9.000E+00
     -11     1     3     3     0     0  5.749119270E-01 -2.462085587E-01 -7.255901114E+01  7.256170643E+01  5.110000000E-04  0.00000E+00  9.000E+00
       4     1     1     2   502     0 -4.170723136E-02  2.634430225E-01 -3.674799107E+01  3.674895903E+01  0.000000000E+00  0.00000E+00  9.000E+00
#rwgt            1          19  -310680.65289702185                3    16875787           0
<weights>
-.11145E+08
-.12032E+08
-.10039E+08
-.14624E+08
-.80442E+07
-.91702E+07
-.13910E+08
-.11066E+08
-.11220E+08
-.11424E+08
-.11342E+08
-.11101E+08
-.11466E+08
-.11430E+08
-.11399E+08
-.11108E+08
-.11028E+08
-.10904E+08
-.10799E+08
-.10799E+08
-.10926E+08
-.10878E+08
-.10774E+08
-.11105E+08
-.10805E+08
-.10909E+08
-.11231E+08
-.10937E+08
-.10954E+08
-.10897E+08
-.10856E+08
-.11154E+08
-.11049E+08
-.11112E+08
-.11169E+08
-.11123E+08
-.11157E+08
-.11168E+08
-.11180E+08
-.10963E+08
-.11317E+08
-.11045E+08
-.11252E+08
-.10864E+08
-.11392E+08
</weights>
</event>
<event>
      6  10001  1.11453E+07  8.94427E-01 -1.00000E+00  6.01803E-01
       4    -1     0     0   501     0  0.000000000E+00  0.000000000E+00  6.529448473E-02  6.529448473E-02  0.000000000E+00  0.00000E+00  9.000E+00
      -4    -1     0     0     0   502  0.000000000E+00  0.000000000E+00 -4.780503702E+01  4.780503702E+01  0.000000000E+00  0.00000E+00  9.000E+00
      23     2     1     2     0     0 -3.561275101E-01  4.990121825E-01 -4.616640890E+01  4.618177630E+01  1.021426108E+00  0.00000E+00  9.000E+00
      11     1     3     3     0     0 -5.143059984E-01  6.843071105E-01 -4.165411136E+01  4.166290653E+01  5.110000000E-04  0.00000E+00  9.000E+00
     -11     1     3     3     0     0  1.581784883E-01 -1.852949280E-01 -4.512297537E+00  4.518869767E+00  5.110000000E-04  0.00000E+00  9.000E+00
      21     1     1     2   501   502  3.561275101E-01 -4.990121825E-01 -1.573333641E+00  1.688555213E+00  1.264405455E-07  0.00000E+00  9.000E+00
#rwgt            1          27   193648.19342426938                3    16876818           0
<weights>
0.11145E+08
0.12845E+08
0.93742E+07
0.12860E+08
0.90853E+07
0.10924E+08
0.11218E+08
0.11280E+08
0.11012E+08
0.10815E+08
0.10948E+08
0.10910E+08
0.11130E+08
0.10919E+08
0.10946E+08
0.11199E+08
0.11125E+08
0.11321E+08
0.11339E+08
0.11331E+08
0.11314E+08
0.11323E+08
0.11375E+08
0.11167E+08
0.11390E+08
0.11339E+08
0.11050E+08
0.11302E+08
0.11174E+08
0.11237E+08
0.11336E+08
0.11069E+08
0.11283E+08
0.11187E+08
0.11104E+08
0.11366E+08
0.10948E+08
0.10638E+08
0.11664E+08
0.11062E+08
0.11223E+08
0.11125E+08
0.11168E+08
0.11398E+08
0.10891E+08
</weights>
</event>
<event>
      7  10001  1.11453E+07  8.94427E-01 -1.00000E+00  6.07649E-01
      21    -1     0     0   502   501  0.000000000E+00  0.000000000E+00  9.497117571E-01  9.497117571E-01  0.000000000E+00  0.00000E+00  9.000E+00
       4    -1     0     0   501     0  0.000000000E+00  0.000000000E+00 -2.314776496E+00  2.314776496E+00  0.000000000E+00  0.00000E+00  9.000E+00
      23     2     1     2     0     0  2.479796093E-01  3.696276116E-02 -9.836561741E-01  2.590589683E+00  2.383425120E+00  0.00000E+00  9.000E+00
      11     1     3     3     0     0  1.559353624E-01  8.178236788E-02 -1.779498778E+00  1.788189127E+00  5.110000000E-04  0.00000E+00  9.000E+00
     -11     1     3     3     0     0  9.204424691E-02 -4.481960672E-02  7.958426038E-01  8.024005557E-01  5.110000000E-04  0.00000E+00  9.000E+00
       4     1     1     2   511     0 -6.357030621E-02  4.782199207E-02 -4.520458492E-01  4.589919133E-01  0.000000000E+00  0.00000E+00  9.000E+00
      21     1     1     2   502   511 -1.844093031E-01 -8.478475322E-02  7.063728393E-02  2.149066573E-01  5.963374150E-09  0.00000E+00  9.000E+00
#rwgt            2         195   40332562.679892167                3    16879011           0
<weights>
0.11145E+08
0.11962E+08
0.10017E+08
0.14539E+08
0.80260E+07
0.91702E+07
0.13910E+08
0.11208E+08
0.11079E+08
0.10818E+08
0.10816E+08
0.10948E+08
0.11024E+08
0.10838E+08
0.10826E+08
0.11228E+08
0.11210E+08
0.11471E+08
0.11475E+08
0.11472E+08
0.11445E+08
0.11497E+08
0.11522E+08
0.11325E+08
0.11381E+08
0.11350E+08
0.11092E+08
0.11450E+08
0.11340E+08
0.11470E+08
0.11509E+08
0.11180E+08
0.11218E+08
0.11133E+08
0.11180E+08
0.11254E+08
0.11054E+08
0.11095E+08
0.11105E+08
0.11163E+08
0.11132E+08
0.11173E+08
0.11117E+08
0.11506E+08
0.10813E+08
</weights>
</event>
<event>
      6  10001 -1.11453E+07  8.94427E-01 -1.00000E+00  2.20245E-01
      -2    -1     0     0     0   502  0.000000000E+00  0.000000000E+00  2.441857008E-02  2.441857008E-02  0.000000000E+00  0.00000E+00  9.000E+00
       2    -1     0     0   501     0  0.000000000E+00  0.000000000E+00 -2.564722635E+01  2.564722635E+01  0.000000000E+00  0.00000E+00  9.000E+00
      23     2     1     2     0     0  2.586960235E-01  1.094667217E-01 -2.007302962E+01  2.011476232E+01  1.264214582E+00  0.00000E+00  9.000E+00
      11     1     3     3     0     0  3.081443361E-01 -5.456367983E-01 -1.113719452E+01  1.115480948E+01  5.110000000E-04  0.00000E+00  9.000E+00
     -11     1     3     3     0     0 -4.944831265E-02  6.551035199E-01 -8.935835095E+00  8.959952838E+00  5.110000000E-04  0.00000E+00  9.000E+00
      21     1     1     2   501   502 -2.586960235E-01 -1.094667217E-01 -5.549778163E+00  5.556882602E+00  1.332800375E-07  0.00000E+00  9.000E+00
#rwgt            1           8  -2949141.9435720160                3    16879528           0
<weights>
-.11145E+08
-.13103E+08
-.91289E+07
-.15924E+08
-.73145E+07
-.91702E+07
-.13910E+08
-.11197E+08
-.11092E+08
-.10991E+08
-.11034E+08
-.11107E+08
-.11023E+08
-.11024E+08
-.11033E+08
-.11084E+08
-.11271E+08
-.11155E+08
-.11397E+08
-.11405E+08
-.11143E+08
-.11261E+08
-.11273E+08
-.11245E+08
-.11209E+08
-.11206E+08
-.11113E+08
-.11381E+08
-.10985E+08
-.11249E+08
-.11240E+08
-.11145E+08
-.11180E+08
-.11080E+08
-.11246E+08
-.11106E+08
-.11190E+08
-.10986E+08
-.11276E+08
-.11088E+08
-.11191E+08
-.11213E+08
-.11074E+08
-.11277E+08
-.11017E+08
</weights>
</event>
<event>
      7  10001  1.11453E+07  2.25668E+00 -1.00000E+00  3.32940E-01
      -2    -1     0     0     0   502  0.000000000E+00  0.000000000E+00  1.584119163E-01  1.584119163E-01  0.000000000E+00  0.00000E+00  9.000E+00
       2    -1     0     0   501     0  0.000000000E+00  0.000000000E+00 -6.236816034E+01  6.236816034E+01  0.000000000E+00  0.00000E+00  9.000E+00
      23     2     1     2     0     0  1.403589162E+00  5.959879674E-01 -3.884983713E+01  3.911571532E+01  4.289997207E+00  0.00000E+00  9.000E+00
      11     1     3     3     0     0 -1.466606255E+00 -2.546335176E-01 -1.634639881E+01  1.641403444E+01  5.110000000E-04  0.00000E+00  9.000E+00
     -11     1     3     3     0     0  2.870195417E+00  8.506214850E-01 -2.250343832E+01  2.270168089E+01  5.110000000E-04  0.00000E+00  9.000E+00
      21     1     1     2   511   502 -3.109988419E-03 -1.275958707E-02 -5.223358592E-02  5.385932220E-02  1.140632547E-09  0.00000E+00  9.000E+00
      21     1     1     2   501   511 -1.400479174E+00 -5.832283803E-01 -2.330767771E+01  2.335699761E+01  0.000000000E+00  0.00000E+00  9.000E+00
#rwgt            1           8   738278.24292739725                3    16880518           0
<weights>
0.11145E+08
0.12223E+08
0.10092E+08
0.11646E+08
0.10241E+08
0.11359E+08
0.10550E+08
0.11197E+08
0.11094E+08
0.11059E+08
0.11108E+08
0.11183E+08
0.11003E+08
0.11096E+08
0.11104E+08
0.11067E+08
0.11243E+08
0.11027E+08
0.11391E+08
0.11412E+08
0.11010E+08
0.11190E+08
0.11177E+08
0.11273E+08
0.11082E+08
0.11085E+08
0.11176E+08
0.11395E+08
0.10841E+08
0.11196E+08
0.11154E+08
0.11163E+08
0.11137E+08
0.11014E+08
0.11323E+08
0.11107E+08
0.11180E+08
0.11028E+08
0.11268E+08
0.11065E+08
0.11209E+08
0.11232E+08
0.11053E+08
0.11198E+08
0.11090E+08
</weights>
</event>
<event>
      7  10001  1.11453E+07  5.23594E+00 -1.00000E+00  2.33596E-01
       1    -1     0     0   501     0  0.000000000E+00  0.000000000E+00  4.499259031E+02  4.499259031E+02  0.000000000E+00  0.00000E+00  9.000E+00
      21    -1     0     0   502   501  0.000000000E+00  0.000000000E+00 -7.924777226E-02  7.924777226E-02  0.000000000E+00  0.00000E+00  9.000E+00
      23     2     1     2     0     0 -1.091768380E+00 -5.077556844E-02  4.333259387E+02  4.333320400E+02  2.023157788E+00  0.00000E+00  9.000E+00
      11     1     3     3     0     0 -1.002632259E+00  8.069251749E-01  3.297541478E+02  3.297566593E+02  5.110000000E-04  0.00000E+00  9.000E+00
     -11     1     3     3     0     0 -8.913612028E-02 -8.577007433E-01  1.035717910E+02  1.035753807E+02  5.110000000E-04  0.00000E+00  9.000E+00
       1     1     1     2   512     0  4.304092837E-01  4.801608429E-01  1.433522919E+01  1.434972482E+01  0.000000000E+00  0.00000E+00  9.000E+00
      21     1     1     2   502   512  6.613590959E-01 -4.293852744E-01  2.185487371E+00  2.323386024E+00  4.420398764E-07  0.00000E+00  9.000E+00
#rwgt            2         218   3695495.5029145312                3    16883643           0
<weights>
0.11145E+08
0.10577E+08
0.11573E+08
0.12855E+08
0.92730E+07
0.91702E+07
0.13910E+08
0.11175E+08
0.11115E+08
0.10821E+08
0.10810E+08
0.10960E+08
0.11005E+08
0.10838E+08
0.10821E+08
0.11227E+08
0.11211E+08
0.11466E+08
0.11504E+08
0.11493E+08
0.11442E+08
0.11505E+08
0.11524E+08
0.11406E+08
0.11332E+08
0.11290E+08
0.11320E+08
0.11438E+08
0.11373E+08
0.11483E+08
0.11517E+08
0.11185E+08
0.11217E+08
0.11137E+08
0.11178E+08
0.11211E+08
0.11099E+08
0.11135E+08
0.11081E+08
0.11167E+08
0.11127E+08
0.11185E+08
0.11104E+08
0.11509E+08
0.10811E+08
</weights>
</event>
<event>
      6  10001 -1.11453E+07  8.94427E-01 -1.00000E+00  6.03914E-01
      -5    -1     0     0     0   502  0.000000000E+00  0.000000000E+00  3.600184023E+01  3.600184023E+01  0.000000000E+00  0.00000E+00  9.000E+00
      21    -1     0     0   502   501  0.000000000E+00  0.000000000E+00 -8.957288134E-02  8.957288134E-02  0.000000000E+00  0.00000E+00  9.000E+00
      23     2     1     2     0     0  8.146648299E-01 -2.675354782E-01  3.306183464E+01  3.311480083E+01  1.664292807E+00  0.00000E+00  9.000E+00
      11     1     3     3     0     0 -1.963500110E-01 -1.617230995E-02  5.165509518E-01  5.528471917E-01  5.110000000E-04  0.00000E+00  9.000E+00
     -11     1     3     3     0     0  1.011014841E+00 -2.513631683E-01  3.254528369E+01  3.256195364E+01  5.110000000E-04  0.00000E+00  9.000E+00
      -5     1     1     2     0   501 -8.146648299E-01  2.675354782E-01  2.850432705E+00  2.976612273E+00  0.000000000E+00  0.00000E+00  9.000E+00
#rwgt            1           1  -109419.12046044088                3    16884768           0
<weights>
-.11145E+08
-.82247E+07
-.13006E+08
-.16063E+08
-.74543E+07
-.55324E+07
-.19494E+08
-.11246E+08
-.11039E+08
-.11008E+08
-.11088E+08
-.11034E+08
-.11158E+08
-.11064E+08
-.11086E+08
-.11200E+08
-.11063E+08
-.11203E+08
-.11165E+08
-.11170E+08
-.11197E+08
-.11180E+08
-.11225E+08
-.11035E+08
-.11291E+08
-.11202E+08
-.10854E+08
-.11152E+08
-.11137E+08
-.11131E+08
-.11192E+08
-.11098E+08
-.11205E+08
-.11160E+08
-.11125E+08
-.11272E+08
-.11024E+08
-.10826E+08
-.11433E+08
-.11080E+08
-.11203E+08
-.11141E+08
-.11150E+08
-.11229E+08
-.11056E+08
</weights>
</event>
<event>
      6  10001 -1.11453E+07  8.94427E-01 -1.00000E+00  2.86004E-01
       2    -1     0     0   501     0  0.000000000E+00  0.000000000E+00  2.477461668E+02  2.477461668E+02  0.000000000E+00  0.00000E+00  9.000E+00
      21    -1     0     0   502   501  0.000000000E+00  0.000000000E+00 -1.683087796E-02  1.683087796E-02  0.000000000E+00  0.00000E+00  9.000E+00
      23     2     1     2     0     0 -5.306794052E-01  1.508081050E+00  9.719003075E+01  9.721520350E+01  1.528982007E+00  0.00000E+00  9.000E+00
      11     1     3     3     0     0 -1.507979800E-01  1.542116777E+00  9.113574495E+01  9.114891592E+01  5.110000000E-04  0.00000E+00  9.000E+00
     -11     1     3     3     0     0 -3.798814252E-01 -3.403572669E-02  6.054285796E+00  6.066287587E+00  5.110000000E-04  0.00000E+00  9.000E+00
       2     1     1     2   502     0  5.306794052E-01 -1.508081050E+00  1.505393052E+02  1.505477942E+02  0.000000000E+00  0.00000E+00  9.000E+00
#rwgt            1          24  -6604258.7811442073                3    16886224           0
<weights>
-.11145E+08
-.12534E+08
-.95519E+07
-.15228E+08
-.76529E+07
-.91768E+07
-.13910E+08
-.11179E+08
-.11112E+08
-.10841E+08
-.10842E+08
-.10970E+08
-.11020E+08
-.10863E+08
-.10851E+08
-.11224E+08
-.11194E+08
-.11434E+08
-.11471E+08
-.11460E+08
-.11413E+08
-.11467E+08
-.11491E+08
-.11374E+08
-.11324E+08
-.11273E+08
-.11311E+08
-.11403E+08
-.11349E+08
-.11442E+08
-.11480E+08
-.11174E+08
-.11217E+08
-.11141E+08
-.11171E+08
-.11214E+08
-.11095E+08
-.11096E+08
-.11125E+08
-.11157E+08
-.11136E+08
-.11182E+08
-.11107E+08
-.11477E+08
-.10839E+08
</weights>
</event>
<event>
      6  10001 -1.11453E+07  8.94427E-01 -1.00000E+00  6.07587E-01
      21    -1     0     0   502   501  0.000000000E+00  0.000000000E+00  4.381233382E-02  4.381233382E-02  0.000000000E+00  0.00000E+00  9.000E+00
      -3    -1     0     0     0   502  0.000000000E+00  0.000000000E+00 -1.555348350E+01  1.555348350E+01  0.000000000E+00  0.00000E+00  9.000E+00
      23     2     1     2     0     0  2.622517556E-01  1.310723472E-01 -1.287106702E+01  1.294245351E+01  1.325435999E+00  0.00000E+00  9.000E+00
      11     1     3     3     0     0  2.477699242E-01 -2.080208203E-01 -7.520293558E-01  8.186641620E-01  5.110000000E-04  0.00000E+00  9.000E+00
     -11     1     3     3     0     0  1.448183146E-02  3.390931675E-01 -1.211903766E+01  1.212378934E+01  5.110000000E-04  0.00000E+00  9.000E+00
      -3     1     1     2     0   501 -2.622517556E-01 -1.310723472E-01 -2.638604151E+00  2.654842333E+00  0.000000000E+00  0.00000E+00  9.000E+00
#rwgt            1          13  -190666.18543344532                3    16887423           0
<weights>
-.11145E+08
-.33765E+07
-.12712E+08
-.16866E+08
-.67125E+07
-.11094E+07
-.19952E+08
-.11202E+08
-.11091E+08
-.11084E+08
-.11142E+08
-.11010E+08
-.11258E+08
-.11141E+08
-.11149E+08
-.11206E+08
-.11101E+08
-.11331E+08
-.10820E+08
-.10827E+08
-.11325E+08
-.11131E+08
-.11097E+08
-.10603E+08
-.11649E+08
-.11922E+08
-.97576E+07
-.11258E+08
-.10857E+08
-.11089E+08
-.11101E+08
-.11070E+08
-.11214E+08
-.11149E+08
-.11133E+08
-.11238E+08
-.11059E+08
-.10861E+08
-.11477E+08
-.11055E+08
-.11229E+08
-.11111E+08
-.11182E+08
-.11154E+08
-.11122E+08
</weights>
</event>
<event>
      6  10001 -1.11453E+07  8.94427E-01 -1.00000E+00  5.39027E-01
      -2    -1     0     0     0   502  0.000000000E+00  0.000000000E+00  6.291992641E+01  6.291992641E+01  0.000000000E+00  0.00000E+00  9.000E+00
      21    -1     0     0   502   501  0.000000000E+00  0.000000000E+00 -1.753038637E-02  1.753038637E-02  0.000000000E+00  0.00000E+00  9.000E+00
      23     2     1     2     0     0  9.404776344E-02  5.431654141E-01  5.453369231E+01  5.455061737E+01  1.241928050E+00  0.00000E+00  9.000E+00
      11     1     3     3     0     0 -8.129616222E-03 -4.033118466E-01  1.805008053E+01  1.805458762E+01  5.110000000E-04  0.00000E+00  9.000E+00
     -11     1     3     3     0     0  1.021773797E-01  9.464772607E-01  3.648361178E+01  3.649602976E+01  5.110000000E-04  0.00000E+00  9.000E+00
      -2     1     1     2     0   501 -9.404776344E-02 -5.431654141E-01  8.368703716E+00  8.386839425E+00  0.000000000E+00  0.00000E+00  9.000E+00
#rwgt            1           7  -4652250.6953916419                3    16894912           0
<weights>
-.11145E+08
-.12511E+08
-.96006E+07
-.15203E+08
-.76924E+07
-.91722E+07
-.13910E+08
-.11172E+08
-.11119E+08
-.10825E+08
-.10815E+08
-.10962E+08
-.11007E+08
-.10842E+08
-.10826E+08
-.11226E+08
-.11210E+08
-.11460E+08
-.11501E+08
-.11489E+08
-.11437E+08
-.11499E+08
-.11519E+08
-.11408E+08
-.11328E+08
-.11286E+08
-.11344E+08
-.11433E+08
-.11370E+08
-.11477E+08
-.11512E+08
-.11183E+08
-.11217E+08
-.11138E+08
-.11177E+08
-.11209E+08
-.11101E+08
-.11130E+08
-.11086E+08
-.11166E+08
-.11128E+08
-.11185E+08
-.11104E+08
-.11504E+08
-.10815E+08
</weights>
</event>
<event>
      7  10001  1.11453E+07  2.36586E+01 -1.00000E+00  1.60432E-01
      21    -1     0     0   502   501  0.000000000E+00  0.000000000E+00  3.453820179E+00  3.453820179E+00  0.000000000E+00  0.00000E+00  9.000E+00
       5    -1     0     0   501     0  0.000000000E+00  0.000000000E+00 -4.687863361E+01  4.687863361E+01  0.000000000E+00  0.00000E+00  9.000E+00
      23     2     1     2     0     0 -3.140665754E+00  3.071595399E+00 -2.371692230E+01  2.414797260E+01  1.154858184E+00  0.00000E+00  9.000E+00
      11     1     3     3     0     0 -2.065863666E+00  1.220521909E+00 -1.214993005E+01  1.238459797E+01  5.110000000E-04  0.00000E+00  9.000E+00
     -11     1     3     3     0     0 -1.074802088E+00  1.851073491E+00 -1.156699226E+01  1.176337463E+01  5.110000000E-04  0.00000E+00  9.000E+00
       5     1     1     2   511     0 -7.074610000E-01 -1.731689475E+00 -2.160777491E+01  2.168859576E+01  0.000000000E+00  0.00000E+00  9.000E+00
      21     1     1     2   502   511  3.848126754E+00 -1.339905924E+00  1.899883782E+00  4.495885429E+00  3.455848828E-06  0.00000E+00  9.000E+00
#rwgt            2         198   482582.28051923908                3    16902535           0
<weights>
0.11145E+08
0.11249E+08
0.10567E+08
0.13672E+08
0.84665E+07
0.91702E+07
0.13910E+08
0.11203E+08
0.11089E+08
0.11037E+08
0.11099E+08
0.11018E+08
0.11207E+08
0.11099E+08
0.11108E+08
0.11170E+08
0.11090E+08
0.11174E+08
0.11150E+08
0.11144E+08
0.11177E+08
0.11165E+08
0.11168E+08
0.11127E+08
0.11206E+08
0.11197E+08
0.11098E+08
0.11162E+08
0.11109E+08
0.11121E+08
0.11167E+08
0.11098E+08
0.11201E+08
0.11159E+08
0.11128E+08
0.11261E+08
0.11039E+08
0.10866E+08
0.11457E+08
0.11060E+08
0.11224E+08
0.11117E+08
0.11176E+08
0.11204E+08
0.11076E+08
</weights>
</event>
<event>
      7  10001  1.11453E+07  1.16662E+00 -1.00000E+00  5.06346E-01
      21    -1     0     0   502   512  0.000000000E+00  0.000000000E+00  5.091232475E+00  5.091232475E+00  0.000000000E+00  0.00000E+00  9.000E+00
       2    -1     0     0   501     0  0.000000000E+00  0.000000000E+00 -1.457416780E+01  1.457416780E+01  0.000000000E+00  0.00000E+00  9.000E+00
      23     2     1     2     0     0  1.016671850E+00  3.717161594E-01 -5.403952572E+00  5.613618664E+00  1.066872319E+00  0.00000E+00  9.000E+00
      11     1     3     3     0     0  3.927067995E-01  6.413465699E-01 -3.763791795E+00  3.838186159E+00  5.110000000E-04  0.00000E+00  9.000E+00
     -11     1     3     3     0     0  6.239650506E-01 -2.696304105E-01 -1.640160777E+00  1.775432505E+00  5.110000000E-04  0.00000E+00  9.000E+00
       2     1     1     2   502     0  1.112794512E-01 -7.383335144E-02 -8.996643817E+00  8.997634936E+00  0.000000000E+00  0.00000E+00  9.000E+00
      21     1     1     2   501   512 -1.127951301E+00 -2.978828079E-01  4.917661062E+00  5.054146676E+00  8.429369702E-08  0.00000E+00  9.000E+00
#rwgt            1          17   100314.09816010375                3    16902691           0
<weights>
0.11145E+08
0.15852E+08
0.68003E+07
0.12162E+08
0.95033E+07
0.13687E+08
0.69763E+07
0.11126E+08
0.11156E+08
0.10798E+08
0.10785E+08
0.11061E+08
0.10835E+08
0.10802E+08
0.10791E+08
0.11003E+08
0.11561E+08
0.11373E+08
0.11723E+08
0.11726E+08
0.11346E+08
0.11545E+08
0.11559E+08
0.11407E+08
0.11378E+08
0.11423E+08
0.11033E+08
0.11702E+08
0.11055E+08
0.11545E+08
0.11505E+08
0.11181E+08
0.11228E+08
0.11063E+08
0.11302E+08
0.10889E+08
0.11424E+08
0.11090E+08
0.11049E+08
0.11139E+08
0.11142E+08
0.11289E+08
0.10993E+08
0.11533E+08
0.10792E+08
</weights>
</event>
<event>
      6  10001 -1.11453E+07  8.94427E-01 -1.00000E+00  4.67872E-01
      21    -1     0     0   502   501  0.000000000E+00  0.000000000E+00  5.179602382E-01  5.179602382E-01  0.000000000E+00  0.00000E+00  9.000E+00
       1    -1     0     0   501     0  0.000000000E+00  0.000000000E+00 -2.079469544E+00  2.079469544E+00  0.000000000E+00  0.00000E+00  9.000E+00
      23     2     1     2     0     0  1.633611967E-01  1.971451224E-01 -1.452665312E+00  2.319221057E+00  1.789691795E+00  0.00000E+00  9.000E+00
      11     1     3     3     0     0 -3.983611876E-01  3.905131106E-01 -1.610633552E+00  1.704503689E+00  5.110000000E-04  0.00000E+00  9.000E+00
     -11     1     3     3     0     0  5.617223843E-01 -1.933679882E-01  1.579682406E-01  6.147173676E-01  5.110000000E-04  0.00000E+00  9.000E+00
       1     1     1     2   502     0 -1.633611967E-01 -1.971451224E-01 -1.088439943E-01  2.782087256E-01  0.000000000E+00  0.00000E+00  9.000E+00
#rwgt            1          16  -265052.61192221916                3    16910784           0
<weights>
-.11145E+08
-.10328E+08
-.11368E+08
-.16022E+08
-.71722E+07
-.69866E+07
-.17262E+08
-.11235E+08
-.11050E+08
-.10900E+08
-.10926E+08
-.10982E+08
-.11080E+08
-.10930E+08
-.10932E+08
-.11196E+08
-.11169E+08
-.11351E+08
-.11365E+08
-.11361E+08
-.11334E+08
-.11368E+08
-.11403E+08
-.11237E+08
-.11331E+08
-.11280E+08
-.11096E+08
-.11322E+08
-.11265E+08
-.11334E+08
-.11381E+08
-.11150E+08
-.11210E+08
-.11139E+08
-.11158E+08
-.11254E+08
-.11047E+08
-.10999E+08
-.11222E+08
-.11134E+08
-.11156E+08
-.11164E+08
-.11126E+08
-.11392E+08
-.10914E+08
</weights>
</event>
<event>
      6  10001 -1.11453E+07  8.94427E-01 -1.00000E+00  6.63573E-01
      -2    -1     0     0     0   502  0.000000000E+00  0.000000000E+00  1.184063673E+02  1.184063673E+02  0.000000000E+00  0.00000E+00  9.000E+00
      21    -1     0     0   502   501  0.000000000E+00  0.000000000E+00 -6.128282278E-03  6.128282278E-03  0.000000000E+00  0.00000E+00  9.000E+00
      23     2     1     2     0     0  4.114907035E-01 -4.287330391E-02  1.034169629E+02  1.034235088E+02  1.087559736E+00  0.00000E+00  9.000E+00
      11     1     3     3     0     0  2.525543816E-01  3.098770842E-02  1.009529673E+02  1.009532879E+02  5.110000000E-04  0.00000E+00  9.000E+00
     -11     1     3     3     0     0  1.589363218E-01 -7.386101233E-02  2.463995683E+00  2.470220879E+00  5.110000000E-04  0.00000E+00  9.000E+00
      -2     1     1     2     0   501 -4.114907035E-01  4.287330391E-02  1.498327606E+01  1.498898676E+01  0.000000000E+00  0.00000E+00  9.000E+00
#rwgt            1           7  -3869508.0540539743                3    16914509           0
<weights>
-.11145E+08
-.12269E+08
-.98201E+07
-.14918E+08
-.78686E+07
-.91668E+07
-.13909E+08
-.11182E+08
-.11108E+08
-.10845E+08
-.10848E+08
-.10970E+08
-.11025E+08
-.10868E+08
-.10857E+08
-.11222E+08
-.11192E+08
-.11429E+08
-.11463E+08
-.11453E+08
-.11408E+08
-.11460E+08
-.11485E+08
-.11362E+08
-.11327E+08
-.11277E+08
-.11285E+08
-.11399E+08
-.11342E+08
-.11434E+08
-.11473E+08
-.11172E+08
-.11217E+08
-.11141E+08
-.11170E+08
-.11218E+08
-.11090E+08
-.11088E+08
-.11132E+08
-.11155E+08
-.11137E+08
-.11180E+08
-.11110E+08
-.11471E+08
-.10844E+08
</weights>
</event>
<event>
      6  10001 -1.11453E+07  8.94427E-01 -1.00000E+00  3.67692E-01
      -2    -1     0     0     0   502  0.000000000E+00  0.000000000E+00  2.033316522E+02  2.033316522E+02  0.000000000E+00  0.00000E+00  9.000E+00
      21    -1     0     0   502   501  0.000000000E+00  0.000000000E+00 -8.983070344E-03  8.983070344E-03  0.000000000E+00  0.00000E+00  9.000E+00
      23     2     1     2     0     0 -7.337078442E-01 -3.125155667E-01  1.782884160E+02  1.782936830E+02  1.114490826E+00  0.00000E+00  9.000E+00
      11     1     3     3     0     0 -6.888237057E-01 -6.639891508E-01  1.033223272E+02  1.033267567E+02  5.110000000E-04  0.00000E+00  9.000E+00
     -11     1     3     3     0     0 -4.488413856E-02  3.514735841E-01  7.496608884E+01  7.496692620E+01  5.110000000E-04  0.00000E+00  9.000E+00
      -2     1     1     2     0   501  7.337078442E-01  3.125155667E-01  2.503425310E+01  2.504695233E+01  0.000000000E+00  0.00000E+00  9.000E+00
#rwgt            1           7  -2009599.9731564769                3    16918077           0
<weights>
-.11145E+08
-.12093E+08
-.99799E+07
-.14707E+08
-.79968E+07
-.91641E+07
-.13909E+08
-.11174E+08
-.11117E+08
-.10826E+08
-.10818E+08
-.10963E+08
-.11009E+08
-.10845E+08
-.10828E+08
-.11226E+08
-.11208E+08
-.11458E+08
-.11497E+08
-.11486E+08
-.11435E+08
-.11496E+08
-.11516E+08
-.11403E+08
-.11329E+08
-.11286E+08
-.11334E+08
-.11430E+08
-.11367E+08
-.11473E+08
-.11508E+08
-.11182E+08
-.11217E+08
-.11138E+08
-.11177E+08
-.11210E+08
-.11099E+08
-.11126E+08
-.11090E+08
-.11165E+08
-.11129E+08
-.11184E+08
-.11105E+08
-.11501E+08
-.10818E+08
</weights>
</event>
<event>
      6  10001 -1.11453E+07  8.94427E-01 -1.00000E+00  5.16830E-01
      21    -1     0     0   502   501  0.000000000E+00  0.000000000E+00  2.434420479E-02  2.434420479E-02  0.000000000E+00  0.00000E+00  9.000E+00
       4    -1     0     0   501     0  0.000000000E+00  0.000000000E+00 -4.388057302E+01  4.388057302E+01  0.000000000E+00  0.00000E+00  9.000E+00
      23     2     1     2     0     0  4.978823357E-02  2.772368302E-01 -4.242570914E+01  4.244693037E+01  1.312159536E+00  0.00000E+00  9.000E+00
      11     1     3     3     0     0  1.645337083E-01  3.592641124E-02 -4.072586368E+01  4.072621189E+01  5.110000000E-04  0.00000E+00  9.000E+00
     -11     1     3     3     0     0 -1.147454747E-01  2.413104190E-01 -1.699845460E+00  1.720718481E+00  5.110000000E-04  0.00000E+00  9.000E+00
       4     1     1     2   502     0 -4.978823357E-02 -2.772368302E-01 -1.430519670E+00  1.457986850E+00  0.000000000E+00  0.00000E+00  9.000E+00
#rwgt            1          19  -5851050.8778491719                3    16920318           0
<weights>
-.11145E+08
-.12808E+08
-.93246E+07
-.15567E+08
-.74714E+07
-.91702E+07
-.13910E+08
-.11237E+08
-.11055E+08
-.10934E+08
-.11025E+08
-.10968E+08
-.11169E+08
-.11011E+08
-.11029E+08
-.11183E+08
-.11111E+08
-.11246E+08
-.11245E+08
-.11238E+08
-.11244E+08
-.11243E+08
-.11271E+08
-.11149E+08
-.11294E+08
-.11266E+08
-.11075E+08
-.11232E+08
-.11143E+08
-.11182E+08
-.11251E+08
-.11088E+08
-.11237E+08
-.11171E+08
-.11119E+08
-.11308E+08
-.10999E+08
-.10771E+08
-.11536E+08
-.11064E+08
-.11221E+08
-.11121E+08
-.11171E+08
-.11298E+08
-.10987E+08
</weights>
</event>
<event>
      7  10001  1.11453E+07  1.57523E+00 -1.00000E+00  4.04873E-01
      21    -1     0     0   511   501  0.000000000E+00  0.000000000E+00  2.049838087E+01  2.049838087E+01  0.000000000E+00  0.00000E+00  9.000E+00
      -2    -1     0     0     0   502  0.000000000E+00  0.000000000E+00 -8.350691028E-01  8.350691028E-01  0.000000000E+00  0.00000E+00  9.000E+00
      23     2     1     2     0     0  6.992397247E-01  2.444248660E+00  8.809272228E+00  9.380456284E+00  1.981513365E+00  0.00000E+00  9.000E+00
      11     1     3     3     0     0 -2.277443207E-01 -6.043890283E-02  2.733132204E+00  2.743270355E+00  5.110000000E-04  0.00000E+00  9.000E+00
     -11     1     3     3     0     0  9.269840454E-01  2.504687563E+00  6.076140024E+00  6.637185929E+00  5.110000000E-04  0.00000E+00  9.000E+00
      -2     1     1     2     0   501 -1.562006935E+00 -1.126302850E+00  1.431019443E+00  2.399216627E+00  0.000000000E+00  0.00000E+00  9.000E+00
      21     1     1     2   511   502  8.627672103E-01 -1.317945810E+00  9.423020093E+00  9.553777059E+00  2.384185791E-07  0.00000E+00  9.000E+00
#rwgt            1          14   402560.89077990846                3    16922513           0
<weights>
0.11145E+08
0.12673E+08
0.96529E+07
0.12148E+08
0.98097E+07
0.11348E+08
0.10567E+08
0.10972E+08
0.11344E+08
0.10815E+08
0.10773E+08
0.10975E+08
0.10955E+08
0.10822E+08
0.10788E+08
0.11176E+08
0.11310E+08
0.11520E+08
0.11494E+08
0.11478E+08
0.11499E+08
0.11549E+08
0.11542E+08
0.11456E+08
0.11296E+08
0.11376E+08
0.11142E+08
0.11513E+08
0.11331E+08
0.11539E+08
0.11543E+08
0.11158E+08
0.11255E+08
0.11144E+08
0.11179E+08
0.11003E+08
0.11324E+08
0.11190E+08
0.11027E+08
0.11175E+08
0.11117E+08
0.11224E+08
0.11062E+08
0.11535E+08
0.10790E+08
</weights>
</event>
<event>
      7  10001  1.11453E+07  2.08885E+00 -1.00000E+00  3.46079E-01
      -2    -1     0     0     0   502  0.000000000E+00  0.000000000E+00  2.189454916E-01  2.189454916E-01  0.000000000E+00  0.00000E+00  9.000E+00
      21    -1     0     0   502   501  0.000000000E+00  0.000000000E+00 -1.789216949E+01  1.789216949E+01  0.000000000E+00  0.00000E+00  9.000E+00
      23     2     1     2     0     0  2.479837578E-01  1.480220816E-01 -3.151866377E+00  3.482365733E+00  1.452309525E+00  0.00000E+00  9.000E+00
      11     1     3     3     0     0  4.763611287E-01  3.349454002E-01 -3.811514719E-01  6.959777667E-01  5.110000000E-04  0.00000E+00  9.000E+00
     -11     1     3     3     0     0 -2.283773709E-01 -1.869233186E-01 -2.770714905E+00  2.786387966E+00  5.110000000E-04  0.00000E+00  9.000E+00
      -2     1     1     2     0   511  3.649415090E-01  6.587825829E-01 -5.774943705E+00  5.823843369E+00  0.000000000E+00  0.00000E+00  9.000E+00
      21     1     1     2   511   501 -6.129252668E-01 -8.068046646E-01 -8.746413918E+00  8.804905881E+00  1.192092896E-07  0.00000E+00  9.000E+00
#rwgt            1           7   2077240.2482614564                3    16939045           0
<weights>
0.11145E+08
0.13106E+08
0.90362E+07
0.12681E+08
0.93816E+07
0.11375E+08
0.10525E+08
0.11293E+08
0.10993E+08
0.10553E+08
0.10613E+08
0.10830E+08
0.10907E+08
0.10600E+08
0.10611E+08
0.11274E+08
0.11265E+08
0.11667E+08
0.11748E+08
0.11745E+08
0.11625E+08
0.11710E+08
0.11822E+08
0.11366E+08
0.11643E+08
0.11548E+08
0.10987E+08
0.11640E+08
0.11436E+08
0.11643E+08
0.11739E+08
0.11165E+08
0.11301E+08
0.11142E+08
0.11179E+08
0.11368E+08
0.10952E+08
0.10869E+08
0.11206E+08
0.11182E+08
0.11114E+08
0.11197E+08
0.11092E+08
0.11756E+08
0.10580E+08
</weights>
</event>
<event>
      7  10001  1.11453E+07  8.94427E-01 -1.00000E+00  6.07649E-01
       5    -1     0     0   501     0  0.000000000E+00  0.000000000E+00  3.573226308E+00  3.573226308E+00  0.000000000E+00  0.00000E+00  9.000E+00
      21    -1     0     0   512   502  0.000000000E+00  0.000000000E+00 -3.337818095E+01  3.337818095E+01  0.000000000E+00  0.00000E+00  9.000E+00
      23     2     1     2     0     0  4.663864701E-01  3.424219479E-01  3.322414168E+00  3.565621361E+00  1.157778326E+00  0.00000E+00  9.000E+00
      11     1     3     3     0     0  6.904434937E-02 -4.238298804E-01  1.192304828E+00  1.267276589E+00  5.110000000E-04  0.00000E+00  9.000E+00
     -11     1     3     3     0     0  3.973421207E-01  7.662518283E-01  2.130109341E+00  2.298344772E+00  5.110000000E-04  0.00000E+00  9.000E+00
      21     1     1     2   501   502 -7.006823296E-01 -5.014787847E-01 -3.308876501E+01  3.309998198E+01  2.431401974E-06  0.00000E+00  9.000E+00
       5     1     1     2   512     0  2.342958595E-01  1.590568368E-01 -3.860379542E-02  2.858039191E-01  0.000000000E+00  0.00000E+00  9.000E+00
#rwgt            2         339   801475.40916746855                3    17004366           0
<weights>
0.11145E+08
0.11022E+08
0.10808E+08
0.13396E+08
0.86603E+07
0.91702E+07
0.13910E+08
0.11216E+08
0.11074E+08
0.10959E+08
0.11019E+08
0.11007E+08
0.11131E+08
0.11007E+08
0.11021E+08
0.11193E+08
0.11120E+08
0.11262E+08
0.11264E+08
0.11259E+08
0.11256E+08
0.11259E+08
0.11297E+08
0.11156E+08
0.11301E+08
0.11259E+08
0.11068E+08
0.11236E+08
0.11179E+08
0.11215E+08
0.11269E+08
0.11112E+08
0.11216E+08
0.11156E+08
0.11137E+08
0.11266E+08
0.11037E+08
0.10892E+08
0.11377E+08
0.11098E+08
0.11188E+08
0.11143E+08
0.11148E+08
0.11299E+08
0.10994E+08
</weights>
</event>
<event>
      7  10001  1.11453E+07  1.38194E+00 -1.00000E+00  4.51721E-01
      21    -1     0     0   502   501  0.000000000E+00  0.000000000E+00  7.970474839E-02  7.970474839E-02  0.000000000E+00  0.00000E+00  9.000E+00
      -4    -1     0     0     0   502  0.000000000E+00  0.000000000E+00 -1.803379089E+01  1.803379089E+01  0.000000000E+00  0.00000E+00  9.000E+00
      23     2     1     2     0     0 -7.141697758E-02 -6.068518458E-01 -8.041802850E+00  8.145100852E+00  1.139607507E+00  0.00000E+00  9.000E+00
      11     1     3     3     0     0 -4.708986440E-01  3.420483828E-02 -4.434610229E+00  4.459673043E+00  5.110000000E-04  0.00000E+00  9.000E+00
     -11     1     3     3     0     0  3.994816664E-01 -6.410566841E-01 -3.607192621E+00  3.685427809E+00  5.110000000E-04  0.00000E+00  9.000E+00
      -4     1     1     2     0   511 -2.460534843E-01 -9.937845130E-02 -3.374694149E+00  3.385111371E+00  0.000000000E+00  0.00000E+00  9.000E+00
      21     1     1     2   511   501  3.174704618E-01  7.062302971E-01 -6.537589141E+00  6.583283414E+00  1.192092896E-07  0.00000E+00  9.000E+00
#rwgt            1          12   317450.96316295984                3    17005510           0
<weights>
0.11145E+08
0.13428E+07
0.26566E+08
-.67659E+07
0.25932E+08
0.14443E+08
0.58150E+07
0.11297E+08
0.10990E+08
0.10559E+08
0.10623E+08
0.10822E+08
0.10932E+08
0.10598E+08
0.10619E+08
0.11246E+08
0.11305E+08
0.11657E+08
0.11758E+08
0.11754E+08
0.11620E+08
0.11696E+08
0.11828E+08
0.11356E+08
0.11657E+08
0.11607E+08
0.10958E+08
0.11656E+08
0.11407E+08
0.11628E+08
0.11727E+08
0.11154E+08
0.11310E+08
0.11155E+08
0.11164E+08
0.11390E+08
0.10933E+08
0.10846E+08
0.11235E+08
0.11184E+08
0.11113E+08
0.11177E+08
0.11113E+08
0.11749E+08
0.10587E+08
</weights>
</event>
<event>
      6  10001 -1.11453E+07  8.94427E-01 -1.00000E+00  1.82129E-01
      21    -1     0     0   502   501  0.000000000E+00  0.000000000E+00  6.455504982E-03  6.455504982E-03  0.000000000E+00  0.00000E+00  9.000E+00
       2    -1     0     0   501     0  0.000000000E+00  0.000000000E+00 -1.626562078E+02  1.626562078E+02  0.000000000E+00  0.00000E+00  9.000E+00
      23     2     1     2     0     0  8.413709864E-02  3.730121008E-01 -1.428940999E+02  1.429033107E+02  1.576763174E+00  0.00000E+00  9.000E+00
      11     1     3     3     0     0 -4.598261368E-01  4.425649336E-01 -2.568425406E+01  2.569218190E+01  5.110000000E-04  0.00000E+00  9.000E+00
     -11     1     3     3     0     0  5.439632354E-01 -6.955283277E-02 -1.172098459E+02  1.172111288E+02  5.110000000E-04  0.00000E+00  9.000E+00
       2     1     1     2   502     0 -8.413709864E-02 -3.730121008E-01 -1.975565237E+01  1.975935266E+01  0.000000000E+00  0.00000E+00  9.000E+00
#rwgt            1          17  -10154441.863985986                3    17014569           0
<weights>
-.11145E+08
-.12107E+08
-.10038E+08
-.14714E+08
-.80433E+07
-.91702E+07
-.13910E+08
-.11134E+08
-.11155E+08
-.11171E+08
-.11172E+08
-.11125E+08
-.11175E+08
-.11174E+08
-.11172E+08
-.11269E+08
-.10936E+08
-.11177E+08
-.11022E+08
-.11013E+08
-.11181E+08
-.11105E+08
-.11126E+08
-.11201E+08
-.11034E+08
-.11098E+08
-.11161E+08
-.11093E+08
-.11121E+08
-.11110E+08
-.11124E+08
-.11085E+08
-.11195E+08
-.11177E+08
-.11096E+08
-.11140E+08
-.11145E+08
-.11165E+08
-.11127E+08
-.11140E+08
-.11146E+08
-.11175E+08
-.11113E+08
-.11114E+08
-.11173E+08
</weights>
</event>
<event>
      7  10001  1.11453E+07  1.43293E+00 -1.00000E+00  4.40713E-01
      21    -1     0     0   502   511  0.000000000E+00  0.000000000E+00  1.667306147E+03  1.667306147E+03  0.000000000E+00  0.00000E+00  9.000E+00
       1    -1     0     0   501     0  0.000000000E+00  0.000000000E+00 -1.390203027E+00  1.390203027E+00  0.000000000E+00  0.00000E+00  9.000E+00
      23     2     1     2     0     0  8.051460415E-01 -9.451470616E-02  1.631779476E-02  1.431461537E+00  1.179670583E+00  0.00000E+00  9.000E+00
      11     1     3     3     0     0  3.597806638E-01 -4.933293036E-01 -3.753708436E-01  7.167422544E-01  5.110000000E-04  0.00000E+00  9.000E+00
     -11     1     3     3     0     0  4.453653777E-01  3.988145974E-01  3.916886384E-01  7.147192829E-01  5.110000000E-04  0.00000E+00  9.000E+00
       1     1     1     2   502     0  1.829094642E-01  1.132323350E+00 -2.002889126E-01  1.164357200E+00  0.000000000E+00  0.00000E+00  9.000E+00
      21     1     1     2   501   511 -9.880555057E-01 -1.037808644E+00  1.666099915E+03  1.666100531E+03  2.157918644E-05  0.00000E+00  9.000E+00
#rwgt            1          16   51625.099241629621                3    17016349           0
<weights>
0.11145E+08
0.18726E+08
0.47751E+07
0.77321E+07
0.12252E+08
0.18648E+08
-.63940E+06
0.10347E+08
0.12014E+08
0.10756E+08
0.10552E+08
0.10894E+08
0.10868E+08
0.10701E+08
0.10599E+08
0.11329E+08
0.11279E+08
0.12034E+08
0.11276E+08
0.11178E+08
0.12056E+08
0.11766E+08
0.11735E+08
0.11686E+08
0.11300E+08
0.11770E+08
0.10944E+08
0.11599E+08
0.11592E+08
0.11792E+08
0.11772E+08
0.11169E+08
0.11316E+08
0.11478E+08
0.10856E+08
0.10364E+08
0.12013E+08
0.11538E+08
0.10671E+08
0.11190E+08
0.11094E+08
0.11370E+08
0.10906E+08
0.11705E+08
0.10647E+08
</weights>
</event>
<event>
      7  10001  1.11453E+07  8.94427E-01 -1.00000E+00  6.07649E-01
      21    -1     0     0   502   501  0.000000000E+00  0.000000000E+00  3.082093352E-01  3.082093352E-01  0.000000000E+00  0.00000E+00  9.000E+00
       5    -1     0     0   501     0  0.000000000E+00  0.000000000E+00 -1.559343170E+00  1.559343170E+00  0.000000000E+00  0.00000E+00  9.000E+00
      23     2     1     2     0     0 -1.070225875E-01 -7.410547173E-02 -1.052260843E+00  1.483834794E+00  1.038059419E+00  0.00000E+00  9.000E+00
      11     1     3     3     0     0  2.335650685E-01  1.644593993E-01  6.391239631E-02  2.927193038E-01  5.110000000E-04  0.00000E+00  9.000E+00
     -11     1     3     3     0     0 -3.405876560E-01 -2.385648711E-01 -1.116173239E+00  1.191115490E+00  5.110000000E-04  0.00000E+00  9.000E+00
       5     1     1     2   511     0  1.043563763E-02  1.612064905E-02 -2.564729604E-01  2.571908965E-01  0.000000000E+00  0.00000E+00  9.000E+00
      21     1     1     2   502   511  9.658694983E-02  5.798482268E-02  5.759996855E-02  1.265268150E-01  1.026569292E-08  0.00000E+00  9.000E+00
#rwgt            2         198   1036670.1357135084                3    17021204           0
<weights>
0.11145E+08
0.12990E+08
0.89476E+07
0.15787E+08
0.71693E+07
0.91702E+07
0.13910E+08
0.11205E+08
0.11082E+08
0.10844E+08
0.10851E+08
0.10963E+08
0.11036E+08
0.10868E+08
0.10859E+08
0.11225E+08
0.11190E+08
0.11434E+08
0.11441E+08
0.11438E+08
0.11411E+08
0.11457E+08
0.11483E+08
0.11307E+08
0.11356E+08
0.11313E+08
0.11118E+08
0.11406E+08
0.11323E+08
0.11428E+08
0.11469E+08
0.11171E+08
0.11216E+08
0.11138E+08
0.11172E+08
0.11244E+08
0.11062E+08
0.11070E+08
0.11141E+08
0.11153E+08
0.11140E+08
0.11172E+08
0.11117E+08
0.11469E+08
0.10845E+08
</weights>
</event>
<event>
      6  10001 -1.11453E+07  8.94427E-01 -1.00000E+00  2.80240E-01
      21    -1     0     0   502   501  0.000000000E+00  0.000000000E+00  2.321634764E-02  2.321634764E-02  0.000000000E+00  0.00000E+00  9.000E+00
       2    -1     0     0   501     0  0.000000000E+00  0.000000000E+00 -2.876131495E+02  2.876131495E+02  0.000000000E+00  0.00000E+00  9.000E+00
      23     2     1     2     0     0  6.389399870E-01  1.024157072E+00 -2.697263094E+02  2.697320034E+02  1.270637523E+00  0.00000E+00  9.000E+00
      11     1     3     3     0     0  1.005234026E+00  5.791042427E-01 -1.621698383E+02  1.621739878E+02  5.110000000E-04  0.00000E+00  9.000E+00
     -11     1     3     3     0     0 -3.662940390E-01  4.450528289E-01 -1.075564711E+02  1.075580156E+02  5.110000000E-04  0.00000E+00  9.000E+00
       2     1     1     2   502     0 -6.389399870E-01 -1.024157072E+00 -1.786362377E+01  1.790436249E+01  0.000000000E+00  0.00000E+00  9.000E+00
#rwgt            1          17  -35695545.732937567                3    17021797           0
<weights>
-.11145E+08
-.12304E+08
-.97582E+07
-.14954E+08
-.78187E+07
-.91702E+07
-.13910E+08
-.11127E+08
-.11162E+08
-.11171E+08
-.11162E+08
-.11057E+08
-.11252E+08
-.11165E+08
-.11163E+08
-.11334E+08
-.10858E+08
-.11328E+08
-.10847E+08
-.10810E+08
-.11347E+08
-.11104E+08
-.11155E+08
-.11133E+08
-.11107E+08
-.11198E+08
-.11104E+08
-.10925E+08
-.11344E+08
-.11090E+08
-.11158E+08
-.11034E+08
-.11251E+08
-.11330E+08
-.10907E+08
-.11127E+08
-.11160E+08
-.11167E+08
-.11124E+08
-.11196E+08
-.11098E+08
-.11152E+08
-.11137E+08
-.11123E+08
-.11167E+08
</weights>
</event>
<event>
      6  10001 -1.11453E+07  8.94427E-01 -1.00000E+00  4.77201E-01
       2    -1     0     0   501     0  0.000000000E+00  0.000000000E+00  7.381682171E+01  7.381682171E+01  0.000000000E+00  0.00000E+00  9.000E+00
      21    -1     0     0   502   501  0.000000000E+00  0.000000000E+00 -1.952280551E-02  1.952280551E-02  0.000000000E+00  0.00000E+00  9.000E+00
      23     2     1     2     0     0  3.366117135E-01 -1.611485339E-01  7.098640659E+01  7.100078603E+01  1.379282662E+00  0.00000E+00  9.000E+00
      11     1     3     3     0     0 -3.028101263E-01  4.197717609E-01  1.838012702E+01  1.838741341E+01  5.110000000E-04  0.00000E+00  9.000E+00
     -11     1     3     3     0     0  6.394218398E-01 -5.809202948E-01  5.260627957E+01  5.261337262E+01  5.110000000E-04  0.00000E+00  9.000E+00
       2     1     1     2   502     0 -3.366117135E-01  1.611485339E-01  2.810892316E+00  2.835558483E+00  0.000000000E+00  0.00000E+00  9.000E+00
#rwgt            1          24  -14548269.014967719                3    17022706           0
<weights>
-.11145E+08
-.12446E+08
-.96603E+07
-.15132E+08
-.77405E+07
-.91672E+07
-.13909E+08
-.11176E+08
-.11114E+08
-.10858E+08
-.10857E+08
-.10976E+08
-.11031E+08
-.10881E+08
-.10867E+08
-.11222E+08
-.11188E+08
-.11421E+08
-.11447E+08
-.11437E+08
-.11400E+08
-.11451E+08
-.11468E+08
-.11362E+08
-.11312E+08
-.11268E+08
-.11294E+08
-.11390E+08
-.11337E+08
-.11427E+08
-.11463E+08
-.11174E+08
-.11212E+08
-.11139E+08
-.11172E+08
-.11212E+08
-.11096E+08
-.11103E+08
-.11125E+08
-.11154E+08
-.11139E+08
-.11179E+08
-.11110E+08
-.11459E+08
-.10855E+08
</weights>
</event>
<event>
      6  10001 -1.11453E+07  8.94427E-01 -1.00000E+00  2.43289E-01
      -5    -1     0     0     0   502  0.000000000E+00  0.000000000E+00  3.380830732E+00  3.380830732E+00  0.000000000E+00  0.00000E+00  9.000E+00
      21    -1     0     0   502   501  0.000000000E+00  0.000000000E+00 -1.571955027E-01  1.571955027E-01  0.000000000E+00  0.00000E+00  9.000E+00
      23     2     1     2     0     0 -1.120918681E-02 -2.597879052E-01  2.554829232E+00  2.820449156E+00  1.166261393E+00  0.00000E+00  9.000E+00
      11     1     3     3     0     0 -1.283096343E-01  2.045982100E-01  2.173667434E-02  2.424799660E-01  5.110000000E-04  0.00000E+00  9.000E+00
     -11     1     3     3     0     0  1.171004475E-01 -4.643861152E-01  2.533092558E+00  2.577969190E+00  5.110000000E-04  0.00000E+00  9.000E+00
      -5     1     1     2     0   501  1.120918681E-02  2.597879052E-01  6.688059972E-01  7.175770784E-01  0.000000000E+00  0.00000E+00  9.000E+00
#rwgt            1           1  -321691.12973123201                3    17024436           0
<weights>
-.11150E+08
-.12915E+08
-.85006E+07
-.17995E+08
-.58267E+07
-.78485E+07
-.15848E+08
-.11209E+08
-.11090E+08
-.10961E+08
-.11001E+08
-.11020E+08
-.11111E+08
-.11002E+08
-.11006E+08
-.11213E+08
-.11119E+08
-.11292E+08
-.11282E+08
-.11278E+08
-.11281E+08
-.11295E+08
-.11317E+08
-.11197E+08
-.11283E+08
-.11219E+08
-.11109E+08
-.11250E+08
-.11228E+08
-.11259E+08
-.11304E+08
-.11138E+08
-.11208E+08
-.11155E+08
-.11152E+08
-.11239E+08
-.11072E+08
-.10969E+08
-.11299E+08
-.11116E+08
-.11181E+08
-.11163E+08
-.11137E+08
-.11322E+08
-.10984E+08
</weights>
</event>
<event>
      6  10001  1.11453E+07  8.94427E-01 -1.00000E+00  6.04576E-01
      21    -1     0     0   502   501  0.000000000E+00  0.000000000E+00  1.311926564E+02  1.311926564E+02  0.000000000E+00  0.00000E+00  9.000E+00
      -3    -1     0     0     0   502  0.000000000E+00  0.000000000E+00 -2.929927825E-02  2.929927825E-02  0.000000000E+00  0.00000E+00  9.000E+00
      23     2     1     2     0     0 -1.685053992E+00 -1.500181154E-01  5.382600863E+01  5.386610661E+01  1.206782728E+00  0.00000E+00  9.000E+00
      11     1     3     3     0     0 -3.337535728E-01  4.327065731E-01  2.102976713E+01  2.103686603E+01  5.110000000E-04  0.00000E+00  9.000E+00
     -11     1     3     3     0     0 -1.351300419E+00 -5.827246885E-01  3.279624149E+01  3.282924058E+01  5.110000000E-04  0.00000E+00  9.000E+00
      -3     1     1     2     0   501  1.685053992E+00  1.500181154E-01  7.733734851E+01  7.735584908E+01  0.000000000E+00  0.00000E+00  9.000E+00
#rwgt            1          13   122281.24763243221                3    17025974           0
<weights>
0.11145E+08
0.12087E+08
0.10101E+08
0.12652E+08
0.94748E+07
0.10572E+08
0.11758E+08
0.11148E+08
0.11145E+08
0.10781E+08
0.10751E+08
0.10968E+08
0.10945E+08
0.10789E+08
0.10765E+08
0.11192E+08
0.11289E+08
0.11409E+08
0.11982E+08
0.11841E+08
0.11399E+08
0.11568E+08
0.11603E+08
0.12335E+08
0.11153E+08
0.11090E+08
0.15655E+08
0.11422E+08
0.11570E+08
0.11555E+08
0.11599E+08
0.11218E+08
0.11206E+08
0.11137E+08
0.11186E+08
0.11188E+08
0.11125E+08
0.11226E+08
0.10991E+08
0.11190E+08
0.11106E+08
0.11203E+08
0.11085E+08
0.11570E+08
0.10758E+08
</weights>
</event>
<event>
      6  10001 -1.11453E+07  8.94427E-01 -1.00000E+00  4.59893E-01
      -2    -1     0     0     0   502  0.000000000E+00  0.000000000E+00  1.102415062E-02  1.102415062E-02  0.000000000E+00  0.00000E+00  9.000E+00
       2    -1     0     0   501     0  0.000000000E+00  0.000000000E+00 -4.740003493E+02  4.740003493E+02  0.000000000E+00  0.00000E+00  9.000E+00
      23     2     1     2     0     0 -1.463474919E-01  4.576204649E-01 -4.620659798E+02  4.620783521E+02  3.347082739E+00  0.00000E+00  9.000E+00
      11     1     3     3     0     0 -1.747501598E+00  2.017740666E-01 -2.454935227E+02  2.454998252E+02  5.110000000E-04  0.00000E+00  9.000E+00
     -11     1     3     3     0     0  1.601154106E+00  2.558463983E-01 -2.165724571E+02  2.165785270E+02  5.110000000E-04  0.00000E+00  9.000E+00
      21     1     1     2   501   502  1.463474919E-01 -4.576204649E-01 -1.192334535E+01  1.193302135E+01  4.129530925E-07  0.00000E+00  9.000E+00
#rwgt            1           8  -3421966.6150053851                3    17041726           0
<weights>
-.11145E+08
-.12147E+08
-.99329E+07
-.14763E+08
-.79587E+07
-.91702E+07
-.13910E+08
-.11130E+08
-.11160E+08
-.11165E+08
-.11151E+08
-.10984E+08
-.11328E+08
-.11157E+08
-.11153E+08
-.11276E+08
-.10947E+08
-.11473E+08
-.10679E+08
-.10614E+08
-.11512E+08
-.11108E+08
-.11171E+08
-.11041E+08
-.11210E+08
-.11350E+08
-.11017E+08
-.10744E+08
-.11586E+08
-.11067E+08
-.11189E+08
-.11027E+08
-.11261E+08
-.11521E+08
-.10684E+08
-.11096E+08
-.11190E+08
-.11146E+08
-.11150E+08
-.11256E+08
-.11046E+08
-.11133E+08
-.11157E+08
-.11132E+08
-.11158E+08
</weights>
</event>
<event>
      6  10001 -1.11453E+07  8.94427E-01 -1.00000E+00  4.30009E-01
      -4    -1     0     0     0   502  0.000000000E+00  0.000000000E+00  1.599436081E+00  1.599436081E+00  0.000000000E+00  0.00000E+00  9.000E+00
       4    -1     0     0   501     0  0.000000000E+00  0.000000000E+00 -3.863654610E-01  3.863654610E-01  0.000000000E+00  0.00000E+00  9.000E+00
      23     2     1     2     0     0  1.966443810E-01  2.374231121E-01  1.061451636E+00  1.642250871E+00  1.214606769E+00  0.00000E+00  9.000E+00
      11     1     3     3     0     0  1.412143028E-01  7.007522953E-02  1.319967147E+00  1.329347790E+00  5.110000000E-04  0.00000E+00  9.000E+00
     -11     1     3     3     0     0  5.543007820E-02  1.673478826E-01 -2.585155114E-01  3.129030811E-01  5.110000000E-04  0.00000E+00  9.000E+00
      21     1     1     2   501   502 -1.966443810E-01 -2.374231121E-01  1.516189842E-01  3.435506704E-01  1.263307404E-08  0.00000E+00  9.000E+00
#rwgt            1           4  -561334.59260927036                3    17041851           0
<weights>
-.11145E+08
-.10286E+08
-.10950E+08
-.20404E+08
-.48087E+07
-.44308E+07
-.21185E+08
-.11211E+08
-.11078E+08
-.10955E+08
-.11006E+08
-.11016E+08
-.11109E+08
-.10996E+08
-.11008E+08
-.11203E+08
-.11114E+08
-.11274E+08
-.11284E+08
-.11280E+08
-.11264E+08
-.11274E+08
-.11320E+08
-.11172E+08
-.11294E+08
-.11221E+08
-.11095E+08
-.11232E+08
-.11211E+08
-.11233E+08
-.11287E+08
-.11122E+08
-.11210E+08
-.11154E+08
-.11139E+08
-.11242E+08
-.11058E+08
-.10909E+08
-.11315E+08
-.11107E+08
-.11179E+08
-.11156E+08
-.11134E+08
-.11311E+08
-.10985E+08
</weights>
</event>
<event>
      7  10001  1.11453E+07  9.14405E-01 -1.00000E+00  5.98414E-01
       3    -1     0     0   501     0  0.000000000E+00  0.000000000E+00  1.111693910E-01  1.111693910E-01  0.000000000E+00  0.00000E+00  9.000E+00
      21    -1     0     0   502   511  0.000000000E+00  0.000000000E+00 -3.718517739E+01  3.718517739E+01  0.000000000E+00  0.00000E+00  9.000E+00
      23     2     1     2     0     0  1.010398537E-01  8.287780151E-02 -1.079087383E+01  1.087591754E+01  1.351127910E+00  0.00000E+00  9.000E+00
      11     1     3     3     0     0  9.620250978E-02 -6.039001741E-01 -3.524287213E+00  3.576947157E+00  5.110000000E-04  0.00000E+00  9.000E+00
     -11     1     3     3     0     0  4.837343906E-03  6.867779756E-01 -7.266586616E+00  7.298970386E+00  5.110000000E-04  0.00000E+00  9.000E+00
       3     1     1     2   502     0 -1.006926663E+00  4.164476744E-02 -4.231848205E+00  4.350192504E+00  0.000000000E+00  0.00000E+00  9.000E+00
      21     1     1     2   501   511  9.058868093E-01 -1.245225690E-01 -2.205128597E+01  2.207023674E+01  3.371747881E-07  0.00000E+00  9.000E+00
#rwgt            1          26   75224.860429863373                3    17043089           0
<weights>
0.11145E+08
0.14081E+08
0.82971E+07
0.12101E+08
0.96450E+07
0.12430E+08
0.89051E+07
0.11274E+08
0.11009E+08
0.10542E+08
0.10563E+08
0.10815E+08
0.10896E+08
0.10569E+08
0.10568E+08
0.11274E+08
0.11302E+08
0.11719E+08
0.11792E+08
0.11789E+08
0.11674E+08
0.11768E+08
0.11870E+08
0.11431E+08
0.11631E+08
0.11570E+08
0.11003E+08
0.11701E+08
0.11475E+08
0.11715E+08
0.11797E+08
0.11189E+08
0.11294E+08
0.11134E+08
0.11194E+08
0.11346E+08
0.10974E+08
0.10979E+08
0.11071E+08
0.11201E+08
0.11098E+08
0.11201E+08
0.11088E+08
0.11798E+08
0.10546E+08
</weights>
</event>
<event>
      7  10001  1.11453E+07  1.61281E+00 -1.00000E+00  3.99186E-01
      21    -1     0     0   502   501  0.000000000E+00  0.000000000E+00  1.075580225E+02  1.075580225E+02  0.000000000E+00  0.00000E+00  9.000E+00
      21    -1     0     0   501   511  0.000000000E+00  0.000000000E+00 -2.509468851E-01  2.509468851E-01  0.000000000E+00  0.00000E+00  9.000E+00
      23     2     1     2     0     0  3.608255819E-01  7.377910217E-01  4.410422817E+01  4.432512928E+01  4.342765515E+00  0.00000E+00  9.000E+00
      11     1     3     3     0     0  2.226494560E+00 -3.551137435E-01  2.171092385E+01  2.182767964E+01  5.110000000E-04  0.00000E+00  9.000E+00
     -11     1     3     3     0     0 -1.865668978E+00  1.092904765E+00  2.239330432E+01  2.249744964E+01  5.110000000E-04  0.00000E+00  9.000E+00
       4     1     1     2   502     0 -1.850488612E+00 -1.196787028E-01  5.815596571E+01  5.818552208E+01  0.000000000E+00  0.00000E+00  9.000E+00
      -4     1     1     2     0   511  1.489663030E+00 -6.181123190E-01  5.046881778E+00  5.298318078E+00  0.000000000E+00  0.00000E+00  9.000E+00
#rwgt            1          19   499802.65851551411                3    17050870           0
<weights>
0.11145E+08
0.12276E+08
0.98949E+07
0.12569E+08
0.95603E+07
0.10806E+08
0.11398E+08
0.11171E+08
0.11118E+08
0.10772E+08
0.10738E+08
0.10938E+08
0.10970E+08
0.10781E+08
0.10752E+08
0.11238E+08
0.11246E+08
0.11540E+08
0.11576E+08
0.11565E+08
0.11510E+08
0.11590E+08
0.11599E+08
0.11472E+08
0.11355E+08
0.11325E+08
0.11331E+08
0.11518E+08
0.11429E+08
0.11575E+08
0.11602E+08
0.11209E+08
0.11218E+08
0.11129E+08
0.11194E+08
0.11207E+08
0.11105E+08
0.11220E+08
0.10993E+08
0.11190E+08
0.11107E+08
0.11194E+08
0.11095E+08
0.11582E+08
0.10747E+08
</weights>
</event>
<event>
      6  10001 -1.11453E+07  8.94427E-01 -1.00000E+00  4.27703E-01
      -4    -1     0     0     0   502  0.000000000E+00  0.000000000E+00  6.348126717E+00  6.348126717E+00  0.000000000E+00  0.00000E+00  9.000E+00
      21    -1     0     0   502   501  0.000000000E+00  0.000000000E+00 -9.517607290E-02  9.517607290E-02  0.000000000E+00  0.00000E+00  9.000E+00
      23     2     1     2     0     0  1.714219182E-01  2.899159381E-01  4.432151049E+00  4.591614941E+00  1.151315820E+00  0.00000E+00  9.000E+00
      11     1     3     3     0     0  3.562342632E-01 -2.783929912E-01  8.779476608E-01  9.875210702E-01  5.110000000E-04  0.00000E+00  9.000E+00
     -11     1     3     3     0     0 -1.848123449E-01  5.683089293E-01  3.554203388E+00  3.604093871E+00  5.110000000E-04  0.00000E+00  9.000E+00
      -4     1     1     2     0   501 -1.714219182E-01 -2.899159381E-01  1.820799594E+00  1.851687849E+00  0.000000000E+00  0.00000E+00  9.000E+00
#rwgt            1           3  -775382.73335568444                3    17063072           0
<weights>
-.11145E+08
-.12105E+08
-.94905E+07
-.18062E+08
-.58718E+07
-.71278E+07
-.17045E+08
-.11208E+08
-.11078E+08
-.10990E+08
-.11020E+08
-.11030E+08
-.11123E+08
-.11013E+08
-.11024E+08
-.11193E+08
-.11128E+08
-.11264E+08
-.11264E+08
-.11265E+08
-.11254E+08
-.11262E+08
-.11305E+08
-.11153E+08
-.11280E+08
-.11227E+08
-.11005E+08
-.11235E+08
-.11199E+08
-.11232E+08
-.11274E+08
-.11132E+08
-.11196E+08
-.11146E+08
-.11148E+08
-.11235E+08
-.11064E+08
-.10979E+08
-.11248E+08
-.11117E+08
-.11171E+08
-.11150E+08
-.11141E+08
-.11289E+08
-.11008E+08
</weights>
</event>
<event>
      7  10001  1.11453E+07  1.65517E+00 -1.00000E+00  3.93122E-01
      -2    -1     0     0     0   502  0.000000000E+00  0.000000000E+00  3.998267084E+01  3.998267084E+01  0.000000000E+00  0.00000E+00  9.000E+00
      21    -1     0     0   511   501  0.000000000E+00  0.000000000E+00 -3.700127528E+00  3.700127528E+00  0.000000000E+00  0.00000E+00  9.000E+00
      23     2     1     2     0     0  2.546597193E+00  2.448212148E+00  2.519100715E+01  2.576756292E+01  4.111150431E+00  0.00000E+00  9.000E+00
      11     1     3     3     0     0  3.278311916E+00  5.254327094E-01  1.393317359E+01  1.432329345E+01  5.110000000E-04  0.00000E+00  9.000E+00
     -11     1     3     3     0     0 -7.317147237E-01  1.922779438E+00  1.125783355E+01  1.144426947E+01  5.110000000E-04  0.00000E+00  9.000E+00
      -2     1     1     2     0   501 -2.219710590E+00 -8.256406833E-01  1.419862487E+01  1.439478190E+01  0.000000000E+00  0.00000E+00  9.000E+00
      21     1     1     2   511   502 -3.268866025E-01 -1.622571464E+00 -3.107088703E+00  3.520453553E+00  1.264405455E-07  0.00000E+00  9.000E+00
#rwgt            1           7   661557.36724359205                3    17076901           0
<weights>
0.11145E+08
0.13433E+08
0.86846E+07
0.12548E+08
0.94514E+07
0.11742E+08
0.99617E+07
0.11169E+08
0.11118E+08
0.10748E+08
0.10704E+08
0.10927E+08
0.10953E+08
0.10751E+08
0.10719E+08
0.11242E+08
0.11265E+08
0.11574E+08
0.11616E+08
0.11606E+08
0.11541E+08
0.11630E+08
0.11640E+08
0.11502E+08
0.11370E+08
0.11345E+08
0.11334E+08
0.11555E+08
0.11454E+08
0.11617E+08
0.11643E+08
0.11219E+08
0.11219E+08
0.11126E+08
0.11201E+08
0.11206E+08
0.11107E+08
0.11248E+08
0.10945E+08
0.11201E+08
0.11098E+08
0.11198E+08
0.11090E+08
0.11617E+08
0.10716E+08
</weights>
</event>
<event>
      6  10001 -1.11453E+07  8.94427E-01 -1.00000E+00  2.70424E-01
      -5    -1     0     0     0   502  0.000000000E+00  0.000000000E+00  3.254404422E-02  3.254404422E-02  0.000000000E+00  0.00000E+00  9.000E+00
       5    -1     0     0   501     0  0.000000000E+00  0.000000000E+00 -1.661159820E+01  1.661159820E+01  0.000000000E+00  0.00000E+00  9.000E+00
      23     2     1     2     0     0  2.128066562E-03  3.054840001E-01 -1.154833102E+01  1.160415214E+01  1.095021684E+00  0.00000E+00  9.000E+00
      11     1     3     3     0     0 -1.925841909E-01 -1.927532473E-01 -8.801572404E+00  8.805788978E+00  5.110000000E-04  0.00000E+00  9.000E+00
     -11     1     3     3     0     0  1.947122575E-01  4.982372474E-01 -2.746758618E+00  2.798363162E+00  5.110000000E-04  0.00000E+00  9.000E+00
      21     1     1     2   501   502 -2.128066562E-03 -3.054840001E-01 -5.030723134E+00  5.039990105E+00  5.960464478E-08  0.00000E+00  9.000E+00
#rwgt            1           2  -71112.642973042879                3    17122936           0
<weights>
-.11145E+08
-.97223E+07
-.11428E+08
-.16695E+08
-.71395E+07
-.64519E+07
-.18083E+08
-.11191E+08
-.11100E+08
-.11066E+08
-.11116E+08
-.11050E+08
-.11189E+08
-.11113E+08
-.11123E+08
-.11175E+08
-.11082E+08
-.11163E+08
-.11140E+08
-.11135E+08
-.11165E+08
-.11152E+08
-.11161E+08
-.11116E+08
-.11199E+08
-.11171E+08
-.11101E+08
-.11138E+08
-.11120E+08
-.11117E+08
-.11155E+08
-.11107E+08
-.11188E+08
-.11153E+08
-.11134E+08
-.11232E+08
-.11066E+08
-.10923E+08
-.11390E+08
-.11076E+08
-.11209E+08
-.11130E+08
-.11162E+08
-.11184E+08
-.11098E+08
</weights>
</event>
<event>
      7  10001  1.11453E+07  1.57417E+00 -1.00000E+00  4.05038E-01
      21    -1     0     0   502   501  0.000000000E+00  0.000000000E+00  1.751376462E+00  1.751376462E+00  0.000000000E+00  0.00000E+00  9.000E+00
      21    -1     0     0   511   502  0.000000000E+00  0.000000000E+00 -5.261181146E+00  5.261181146E+00  0.000000000E+00  0.00000E+00  9.000E+00
      23     2     1     2     0     0  2.361200766E-01  4.024289160E-01 -1.426557452E+00  1.890874159E+00  1.150059651E+00  0.00000E+00  9.000E+00
      11     1     3     3     0     0  6.832889203E-01  4.028565314E-01 -8.809505993E-01  1.185432981E+00  5.110000000E-04  0.00000E+00  9.000E+00
     -11     1     3     3     0     0 -4.471688436E-01 -4.276153400E-04 -5.456068522E-01  7.054411782E-01  5.110000000E-04  0.00000E+00  9.000E+00
      -2     1     1     2     0   501 -1.427729337E+00 -1.431058525E+00  5.129416754E-01  2.085533199E+00  0.000000000E+00  0.00000E+00  9.000E+00
       2     1     1     2   511     0  1.191609260E+00  1.028629608E+00 -2.596188907E+00  3.036150250E+00  0.000000000E+00  0.00000E+00  9.000E+00
#rwgt            1          14   1058241.9044578185                3    17123624           0
<weights>
0.11145E+08
0.13006E+08
0.95958E+07
0.11180E+08
0.10407E+08
0.12153E+08
0.93312E+07
0.10991E+08
0.11305E+08
0.10813E+08
0.10766E+08
0.10978E+08
0.10940E+08
0.10817E+08
0.10782E+08
0.11152E+08
0.11350E+08
0.11536E+08
0.11487E+08
0.11468E+08
0.11516E+08
0.11556E+08
0.11550E+08
0.11451E+08
0.11303E+08
0.11426E+08
0.11061E+08
0.11537E+08
0.11301E+08
0.11548E+08
0.11547E+08
0.11146E+08
0.11269E+08
0.11156E+08
0.11169E+08
0.10938E+08
0.11386E+08
0.11187E+08
0.11012E+08
0.11178E+08
0.11113E+08
0.11241E+08
0.11044E+08
0.11540E+08
0.10786E+08
</weights>
</event>
<event>
      7  10001  1.11453E+07  1.98735E+00 -1.00000E+00  3.55159E-01
       1    -1     0     0   502     0  0.000000000E+00  0.000000000E+00  2.789554655E+01  2.789554655E+01  0.000000000E+00  0.00000E+00  9.000E+00
      -4    -1     0     0     0   502  0.000000000E+00  0.000000000E+00 -1.508978399E+01  1.508978399E+01  0.000000000E+00  0.00000E+00  9.000E+00
      23     2     1     2     0     0  2.037110870E-01 -4.503061337E-02 -9.586873038E+00  9.643119814E+00  1.018871501E+00  0.00000E+00  9.000E+00
      11     1     3     3     0     0 -3.541987261E-01  6.054869712E-02 -6.076969654E+00  6.087584359E+00  5.110000000E-04  0.00000E+00  9.000E+00
     -11     1     3     3     0     0  5.579098131E-01 -1.055793105E-01 -3.509903384E+00  3.555535455E+00  5.110000000E-04  0.00000E+00  9.000E+00
      -4     1     1     2     0   501 -2.187177713E+00  1.692153614E-01 -5.217877469E+00  5.660267261E+00  0.000000000E+00  0.00000E+00  9.000E+00
       1     1     1     2   501     0  1.983466626E+00 -1.241847481E-01  2.761051308E+01  2.768194347E+01  0.000000000E+00  0.00000E+00  9.000E+00
#rwgt            1          12   817372.59808694047                3    17134789           0
<weights>
0.11145E+08
0.99007E+07
0.13912E+08
0.78877E+07
0.13497E+08
0.11803E+08
0.98685E+07
0.11251E+08
0.11036E+08
0.10714E+08
0.10747E+08
0.10891E+08
0.11000E+08
0.10744E+08
0.10751E+08
0.11228E+08
0.11253E+08
0.11536E+08
0.11586E+08
0.11583E+08
0.11507E+08
0.11564E+08
0.11643E+08
0.11315E+08
0.11507E+08
0.11480E+08
0.11005E+08
0.11531E+08
0.11345E+08
0.11516E+08
0.11584E+08
0.11161E+08
0.11260E+08
0.11144E+08
0.11170E+08
0.11326E+08
0.10988E+08
0.10952E+08
0.11184E+08
0.11165E+08
0.11131E+08
0.11166E+08
0.11124E+08
0.11597E+08
0.10728E+08
</weights>
</event>
<event>
      6  10001 -1.11453E+07  8.94427E-01 -1.00000E+00  3.03624E-01
      21    -1     0     0   502   501  0.000000000E+00  0.000000000E+00  2.386687884E-02  2.386687884E-02  0.000000000E+00  0.00000E+00  9.000E+00
       2    -1     0     0   501     0  0.000000000E+00  0.000000000E+00 -1.490778439E+02  1.490778439E+02  0.000000000E+00  0.00000E+00  9.000E+00
      23     2     1     2     0     0  1.374121698E+00 -8.983677815E-01 -1.027241218E+02  1.027427768E+02  1.066634561E+00  0.00000E+00  9.000E+00
      11     1     3     3     0     0  8.154800889E-02 -3.195290800E-01 -4.527313515E+01  4.527433617E+01  5.110000000E-04  0.00000E+00  9.000E+00
     -11     1     3     3     0     0  1.292573689E+00 -5.788387015E-01 -5.745098664E+01  5.746844062E+01  5.110000000E-04  0.00000E+00  9.000E+00
       2     1     1     2   502     0 -1.374121698E+00  8.983677815E-01 -4.632985525E+01  4.635893401E+01  0.000000000E+00  0.00000E+00  9.000E+00
#rwgt            1          17  -14575527.416200917                3    17143026           0
<weights>
-.11145E+08
-.12863E+08
-.92535E+07
-.15634E+08
-.74144E+07
-.91702E+07
-.13910E+08
-.11138E+08
-.11151E+08
-.11168E+08
-.11172E+08
-.11140E+08
-.11155E+08
-.11174E+08
-.11173E+08
-.11246E+08
-.10966E+08
-.11143E+08
-.11066E+08
-.11062E+08
-.11143E+08
-.11107E+08
-.11120E+08
-.11215E+08
-.11022E+08
-.11080E+08
-.11171E+08
-.11133E+08
-.11070E+08
-.11115E+08
-.11117E+08
-.11098E+08
-.11181E+08
-.11144E+08
-.11137E+08
-.11141E+08
-.11144E+08
-.11158E+08
-.11135E+08
-.11126E+08
-.11158E+08
-.11181E+08
-.11106E+08
-.11114E+08
-.11172E+08
</weights>
</event>
<event>
      7  10001  1.11453E+07  1.47844E+00 -1.00000E+00  4.31639E-01
      21    -1     0     0   502   501  0.000000000E+00  0.000000000E+00  2.262326896E+01  2.262326896E+01  0.000000000E+00  0.00000E+00  9.000E+00
      21    -1     0     0   501   511  0.000000000E+00  0.000000000E+00 -4.881634207E-01  4.881634207E-01  0.000000000E+00  0.00000E+00  9.000E+00
      23     2     1     2     0     0 -2.725180039E-01  2.215131976E+00  1.487056846E+01  1.508800997E+01  1.238209514E+00  0.00000E+00  9.000E+00
      11     1     3     3     0     0  2.671076155E-01  1.833571199E+00  9.701557175E+00  9.876919646E+00  5.110000000E-04  0.00000E+00  9.000E+00
     -11     1     3     3     0     0 -5.396256194E-01  3.815607764E-01  5.169011288E+00  5.211090327E+00  5.110000000E-04  0.00000E+00  9.000E+00
       1     1     1     2   502     0 -1.641489046E-01 -8.026452035E-01  6.063555991E+00  6.118651440E+00  0.000000000E+00  0.00000E+00  9.000E+00
      -1     1     1     2     0   511  4.366669084E-01 -1.412486772E+00  1.200981083E+00  1.904770966E+00  0.000000000E+00  0.00000E+00  9.000E+00
#rwgt            1          16   146497.15145021369                3    17143786           0
<weights>
0.11182E+08
0.13127E+08
0.93314E+07
0.12083E+08
0.98627E+07
0.11749E+08
0.10043E+08
0.10895E+08
0.11557E+08
0.10836E+08
0.10777E+08
0.10999E+08
0.10984E+08
0.10837E+08
0.10795E+08
0.11264E+08
0.11314E+08
0.11617E+08
0.11542E+08
0.11514E+08
0.11601E+08
0.11619E+08
0.11613E+08
0.11569E+08
0.11321E+08
0.11411E+08
0.11342E+08
0.11550E+08
0.11442E+08
0.11612E+08
0.11619E+08
0.11210E+08
0.11289E+08
0.11219E+08
0.11187E+08
0.11016E+08
0.11397E+08
0.11276E+08
0.11021E+08
0.11214E+08
0.11152E+08
0.11266E+08
0.11094E+08
0.11601E+08
0.10801E+08
</weights>
</event>
<event>
      6  10001 -1.11453E+07  8.94427E-01 -1.00000E+00  5.99571E-01
       2    -1     0     0   501     0  0.000000000E+00  0.000000000E+00  2.065985358E+02  2.065985358E+02  0.000000000E+00  0.00000E+00  9.000E+00
      21    -1     0     0   502   501  0.000000000E+00  0.000000000E+00 -5.066248782E-03  5.066248782E-03  0.000000000E+00  0.00000E+00  9.000E+00
      23     2     1     2     0     0  5.139614627E-01 -2.997388080E-01  1.786218941E+02  1.786256995E+02  1.002725247E+00  0.00000E+00  9.000E+00
      11     1     3     3     0     0  2.152841751E-01 -2.643865953E-01  1.648066179E+01  1.648418821E+01  5.110000000E-04  0.00000E+00  9.000E+00
     -11     1     3     3     0     0  2.986772876E-01 -3.535221265E-02  1.621412323E+02  1.621415113E+02  5.110000000E-04  0.00000E+00  9.000E+00
       2     1     1     2   502     0 -5.139614627E-01  2.997388080E-01  2.797157548E+01  2.797790262E+01  0.000000000E+00  0.00000E+00  9.000E+00
#rwgt            1          24  -9954841.4386209119                3    17151341           0
<weights>
-.11144E+08
-.12253E+08
-.98507E+07
-.14902E+08
-.78932E+07
-.91632E+07
-.13908E+08
-.11170E+08
-.11120E+08
-.10822E+08
-.10812E+08
-.10961E+08
-.11005E+08
-.10840E+08
-.10823E+08
-.11224E+08
-.11210E+08
-.11460E+08
-.11503E+08
-.11491E+08
-.11437E+08
-.11500E+08
-.11519E+08
-.11412E+08
-.11327E+08
-.11285E+08
-.11358E+08
-.11433E+08
-.11370E+08
-.11478E+08
-.11512E+08
-.11182E+08
-.11216E+08
-.11136E+08
-.11176E+08
-.11207E+08
-.11101E+08
-.11131E+08
-.11083E+08
-.11165E+08
-.11126E+08
-.11184E+08
-.11102E+08
-.11504E+08
-.10813E+08
</weights>
</event>
<event>
      6  10001 -1.11453E+07  8.94427E-01 -1.00000E+00  3.70472E-01
      21    -1     0     0   502   501  0.000000000E+00  0.000000000E+00  1.205630038E-02  1.205630038E-02  0.000000000E+00  0.00000E+00  9.000E+00
       2    -1     0     0   501     0  0.000000000E+00  0.000000000E+00 -1.382240983E+02  1.382240983E+02  0.000000000E+00  0.00000E+00  9.000E+00
      23     2     1     2     0     0 -9.532782484E-02 -1.008641065E+00 -9.805710907E+01  9.806844265E+01  1.093783246E+00  0.00000E+00  9.000E+00
      11     1     3     3     0     0  1.250720639E-01 -1.133405365E+00 -9.030203907E+01  9.030923824E+01  5.110000000E-04  0.00000E+00  9.000E+00
     -11     1     3     3     0     0 -2.203998887E-01  1.247643000E-01 -7.755070000E+00  7.759204419E+00  5.110000000E-04  0.00000E+00  9.000E+00
       2     1     1     2   502     0  9.532782484E-02  1.008641065E+00 -4.015493294E+01  4.016771195E+01  0.000000000E+00  0.00000E+00  9.000E+00
#rwgt            1          17  -11817131.231586033                3    17152996           0
<weights>
-.11145E+08
-.12408E+08
-.97366E+07
-.15081E+08
-.78015E+07
-.91702E+07
-.13910E+08
-.11140E+08
-.11150E+08
-.11166E+08
-.11172E+08
-.11143E+08
-.11151E+08
-.11174E+08
-.11173E+08
-.11236E+08
-.10980E+08
-.11135E+08
-.11077E+08
-.11075E+08
-.11135E+08
-.11108E+08
-.11118E+08
-.11216E+08
-.11022E+08
-.11078E+08
-.11172E+08
-.11142E+08
-.11058E+08
-.11116E+08
-.11116E+08
-.11102E+08
-.11176E+08
-.11138E+08
-.11146E+08
-.11139E+08
-.11146E+08
-.11154E+08
-.11141E+08
-.11123E+08
-.11161E+08
-.11183E+08
-.11105E+08
-.11115E+08
-.11171E+08
</weights>
</event>
<event>
      6  10001 -1.11453E+07  8.94427E-01 -1.00000E+00  6.25531E-01
      -2    -1     0     0     0   502  0.000000000E+00  0.000000000E+00  5.111344764E+01  5.111344764E+01  0.000000000E+00  0.00000E+00  9.000E+00
      21    -1     0     0   502   501  0.000000000E+00  0.000000000E+00 -2.182443518E-02  2.182443518E-02  0.000000000E+00  0.00000E+00  9.000E+00
      23     2     1     2     0     0 -2.872654323E-01  4.529742184E-01  3.973625986E+01  3.976724746E+01  1.475098444E+00  0.00000E+00  9.000E+00
      11     1     3     3     0     0 -8.115183598E-01 -3.339035831E-02  1.648928640E+01  1.650927749E+01  5.110000000E-04  0.00000E+00  9.000E+00
     -11     1     3     3     0     0  5.242529275E-01  4.863645767E-01  2.324697346E+01  2.325796997E+01  5.110000000E-04  0.00000E+00  9.000E+00
      -2     1     1     2     0   501  2.872654323E-01 -4.529742184E-01  1.135536334E+01  1.136802462E+01  0.000000000E+00  0.00000E+00  9.000E+00
#rwgt            1           7  -3536665.2813537749                3    17155899           0
<weights>
-.11145E+08
-.12654E+08
-.94577E+07
-.15388E+08
-.75783E+07
-.91651E+07
-.13909E+08
-.11173E+08
-.11118E+08
-.10826E+08
-.10817E+08
-.10963E+08
-.11008E+08
-.10844E+08
-.10827E+08
-.11226E+08
-.11209E+08
-.11459E+08
-.11499E+08
-.11487E+08
-.11436E+08
-.11497E+08
-.11517E+08
-.11405E+08
-.11329E+08
-.11287E+08
-.11338E+08
-.11431E+08
-.11368E+08
-.11475E+08
-.11510E+08
-.11183E+08
-.11217E+08
-.11138E+08
-.11177E+08
-.11210E+08
-.11100E+08
-.11128E+08
-.11088E+08
-.11165E+08
-.11129E+08
-.11184E+08
-.11104E+08
-.11502E+08
-.10817E+08
</weights>
</event>
<event>
      7  10001  1.11453E+07  1.55735E+00 -1.00000E+00  4.07690E-01
       2    -1     0     0   501     0  0.000000000E+00  0.000000000E+00  1.498493071E+00  1.498493071E+00  0.000000000E+00  0.00000E+00  9.000E+00
      21    -1     0     0   511   502  0.000000000E+00  0.000000000E+00 -9.982853726E+01  9.982853726E+01  0.000000000E+00  0.00000E+00  9.000E+00
      23     2     1     2     0     0 -1.353033896E+00  3.819398860E-01  6.850646611E-01  1.966254267E+00  1.191748066E+00  0.00000E+00  9.000E+00
      11     1     3     3     0     0 -9.810836290E-01 -2.779422401E-01  6.473528639E-01  1.207825719E+00  5.110000000E-04  0.00000E+00  9.000E+00
     -11     1     3     3     0     0 -3.719502670E-01  6.598821261E-01  3.771179720E-02  7.584285479E-01  5.110000000E-04  0.00000E+00  9.000E+00
      21     1     1     2   501   502  2.888649781E+00 -1.226375906E-01 -9.514715511E+01  9.519107345E+01  3.015782986E-06  0.00000E+00  9.000E+00
       2     1     1     2   511     0 -1.535615885E+00 -2.593022955E-01 -3.867953734E+00  4.169702617E+00  0.000000000E+00  0.00000E+00  9.000E+00
#rwgt            2         249   1312843.0840418134                3    17157809           0
<weights>
0.11148E+08
0.98248E+07
0.12658E+08
0.11981E+08
0.10145E+08
0.91411E+07
0.13910E+08
0.11163E+08
0.11132E+08
0.11172E+08
0.11204E+08
0.11079E+08
0.11268E+08
0.11224E+08
0.11220E+08
0.11152E+08
0.11061E+08
0.11076E+08
0.11013E+08
0.11008E+08
0.11087E+08
0.11059E+08
0.11017E+08
0.11099E+08
0.11081E+08
0.11110E+08
0.11134E+08
0.11070E+08
0.11055E+08
0.11035E+08
0.11052E+08
0.11107E+08
0.11160E+08
0.11149E+08
0.11138E+08
0.11211E+08
0.11086E+08
0.10967E+08
0.11389E+08
0.11051E+08
0.11237E+08
0.11107E+08
0.11191E+08
0.11079E+08
0.11196E+08
</weights>
</event>
<event>
      6  10001 -1.11453E+07  8.94427E-01 -1.00000E+00  5.02853E-01
       2    -1     0     0   501     0  0.000000000E+00  0.000000000E+00  4.331394141E+02  4.331394141E+02  0.000000000E+00  0.00000E+00  9.000E+00
      21    -1     0     0   502   501  0.000000000E+00  0.000000000E+00 -2.148416451E-03  2.148416451E-03  0.000000000E+00  0.00000E+00  9.000E+00
      23     2     1     2     0     0  3.862587960E-01  3.610828348E-01  2.151529503E+02  2.151566059E+02  1.137296952E+00  0.00000E+00  9.000E+00
      11     1     3     3     0     0 -3.558162911E-01  1.209809081E-01  3.608589201E+01  3.608784898E+01  5.110000000E-04  0.00000E+00  9.000E+00
     -11     1     3     3     0     0  7.420750871E-01  2.401019267E-01  1.790670583E+02  1.790687569E+02  5.110000000E-04  0.00000E+00  9.000E+00
       2     1     1     2   502     0 -3.862587960E-01 -3.610828348E-01  2.179843154E+02  2.179849566E+02  0.000000000E+00  0.00000E+00  9.000E+00
#rwgt            1          24  -7419640.1769499732                3    17158801           0
<weights>
-.11145E+08
-.11626E+08
-.10496E+08
-.14139E+08
-.84103E+07
-.91640E+07
-.13909E+08
-.11176E+08
-.11115E+08
-.10831E+08
-.10824E+08
-.10964E+08
-.11013E+08
-.10850E+08
-.10834E+08
-.11225E+08
-.11205E+08
-.11452E+08
-.11490E+08
-.11479E+08
-.11429E+08
-.11489E+08
-.11509E+08
-.11394E+08
-.11329E+08
-.11285E+08
-.11322E+08
-.11424E+08
-.11362E+08
-.11465E+08
-.11501E+08
-.11180E+08
-.11216E+08
-.11138E+08
-.11176E+08
-.11212E+08
-.11097E+08
-.11119E+08
-.11097E+08
-.11163E+08
-.11131E+08
-.11183E+08
-.11106E+08
-.11495E+08
-.10823E+08
</weights>
</event>
<event>
      6  10001  1.11453E+07  8.94427E-01 -1.00000E+00  5.71113E-01
       3    -1     0     0   501     0  0.000000000E+00  0.000000000E+00  1.122415485E+00  1.122415485E+00  0.000000000E+00  0.00000E+00  9.000E+00
      -3    -1     0     0     0   502  0.000000000E+00  0.000000000E+00 -1.100957983E+00  1.100957983E+00  0.000000000E+00  0.00000E+00  9.000E+00
      23     2     1     2     0     0 -2.729335143E-01  3.729446194E-01 -5.887352816E-01  1.457922212E+00  1.251138502E+00  0.00000E+00  9.000E+00
      11     1     3     3     0     0 -7.132807474E-01 -2.568959908E-02 -4.630417061E-01  8.507862615E-01  5.110000000E-04  0.00000E+00  9.000E+00
     -11     1     3     3     0     0  4.403472331E-01  3.986342185E-01 -1.256935755E-01  6.071359501E-01  5.110000000E-04  0.00000E+00  9.000E+00
      21     1     1     2   501   502  2.729335143E-01 -3.729446194E-01  6.101927832E-01  7.654512559E-01  2.787751993E-08  0.00000E+00  9.000E+00
#rwgt            1          25   77876.860178481264                3    17159900           0
<weights>
0.11145E+08
0.13786E+08
0.87606E+07
0.12036E+08
0.95816E+07
0.12099E+08
0.94145E+07
0.11181E+08
0.11104E+08
0.10757E+08
0.10744E+08
0.11027E+08
0.10861E+08
0.10768E+08
0.10749E+08
0.11247E+08
0.11134E+08
0.11228E+08
0.12250E+08
0.12107E+08
0.11236E+08
0.11569E+08
0.11658E+08
0.12667E+08
0.10754E+08
0.10355E+08
0.15492E+08
0.11210E+08
0.11920E+08
0.11554E+08
0.11645E+08
0.11261E+08
0.11170E+08
0.11146E+08
0.11180E+08
0.11229E+08
0.11080E+08
0.11250E+08
0.10951E+08
0.11207E+08
0.11090E+08
0.11222E+08
0.11065E+08
0.11591E+08
0.10740E+08
</weights>
</event>
<event>
      6  10001  1.11453E+07  8.94427E-01 -1.00000E+00  6.04669E-01
       2    -1     0     0   501     0  0.000000000E+00  0.000000000E+00  1.920451243E+00  1.920451243E+00  0.000000000E+00  0.00000E+00  9.000E+00
      -2    -1     0     0     0   502  0.000000000E+00  0.000000000E+00 -1.287551657E+00  1.287551657E+00  0.000000000E+00  0.00000E+00  9.000E+00
      23     2     1     2     0     0 -5.576170690E-01 -3.624631863E-01  1.598175666E+00  2.035793760E+00  1.071435679E+00  0.00000E+00  9.000E+00
      11     1     3     3     0     0  2.333003668E-01 -2.535937580E-01  1.371790403E-01  3.708870522E-01  5.110000000E-04  0.00000E+00  9.000E+00
     -11     1     3     3     0     0 -7.909174358E-01 -1.088694283E-01  1.460996626E+00  1.664906708E+00  5.110000000E-04  0.00000E+00  9.000E+00
      21     1     1     2   501   502  5.576170690E-01  3.624631863E-01 -9.652760802E-01  1.172209140E+00  7.300048300E-08  0.00000E+00  9.000E+00
#rwgt            1          23   401535.99041412352                3    17161373           0
<weights>
0.11145E+08
0.12079E+08
0.10223E+08
0.11609E+08
0.10000E+08
0.11145E+08
0.10878E+08
0.11017E+08
0.11286E+08
0.10823E+08
0.10788E+08
0.10975E+08
0.10967E+08
0.10832E+08
0.10802E+08
0.11178E+08
0.11297E+08
0.11506E+08
0.11478E+08
0.11464E+08
0.11485E+08
0.11532E+08
0.11530E+08
0.11426E+08
0.11306E+08
0.11375E+08
0.11114E+08
0.11497E+08
0.11320E+08
0.11519E+08
0.11528E+08
0.11157E+08
0.11251E+08
0.11146E+08
0.11176E+08
0.11027E+08
0.11296E+08
0.11169E+08
0.11044E+08
0.11171E+08
0.11120E+08
0.11219E+08
0.11067E+08
0.11521E+08
0.10801E+08
</weights>
</event>
<event>
      6  10001 -1.11453E+07  8.94427E-01 -1.00000E+00  1.47379E-01
       2    -1     0     0   501     0  0.000000000E+00  0.000000000E+00  2.318010578E+01  2.318010578E+01  0.000000000E+00  0.00000E+00  9.000E+00
      21    -1     0     0   502   501  0.000000000E+00  0.000000000E+00 -2.159478300E-02  2.159478300E-02  0.000000000E+00  0.00000E+00  9.000E+00
      23     2     1     2     0     0  3.204370974E-02  2.490558905E-01  1.703522096E+01  1.707326385E+01  1.111093961E+00  0.00000E+00  9.000E+00
      11     1     3     3     0     0  4.904214957E-01  2.694971877E-01  1.300035997E+01  1.301239800E+01  5.110000000E-04  0.00000E+00  9.000E+00
     -11     1     3     3     0     0 -4.583777859E-01 -2.044129720E-02  4.034860989E+00  4.060865856E+00  5.110000000E-04  0.00000E+00  9.000E+00
       2     1     1     2   502     0 -3.204370974E-02 -2.490558905E-01  6.123290034E+00  6.128436708E+00  0.000000000E+00  0.00000E+00  9.000E+00
#rwgt            1          24  -1696493.4619925471                3    17163034           0
<weights>
-.11145E+08
-.12764E+08
-.93822E+07
-.15522E+08
-.75178E+07
-.91651E+07
-.13909E+08
-.11173E+08
-.11118E+08
-.10825E+08
-.10816E+08
-.10962E+08
-.11008E+08
-.10843E+08
-.10826E+08
-.11226E+08
-.11210E+08
-.11460E+08
-.11501E+08
-.11489E+08
-.11437E+08
-.11499E+08
-.11518E+08
-.11407E+08
-.11329E+08
-.11287E+08
-.11342E+08
-.11433E+08
-.11370E+08
-.11476E+08
-.11511E+08
-.11183E+08
-.11217E+08
-.11138E+08
-.11177E+08
-.11209E+08
-.11100E+08
-.11129E+08
-.11087E+08
-.11166E+08
-.11128E+08
-.11185E+08
-.11104E+08
-.11503E+08
-.10816E+08
</weights>
</event>
<event>
      6  10001  1.11453E+07  8.94427E-01 -1.00000E+00  5.96102E-01
       1    -1     0     0   501     0  0.000000000E+00  0.000000000E+00  9.396808899E+01  9.396808899E+01  0.000000000E+00  0.00000E+00  9.000E+00
      -1    -1     0     0     0   502  0.000000000E+00  0.000000000E+00 -4.050097763E-02  4.050097763E-02  0.000000000E+00  0.00000E+00  9.000E+00
      23     2     1     2     0     0  2.971625181E-01  3.498461739E-01  9.220987636E+01  9.223060481E+01  1.900649090E+00  0.00000E+00  9.000E+00
      11     1     3     3     0     0 -1.969224096E-01 -1.533052375E-01  1.722901461E+00  1.740882144E+00  5.110000000E-04  0.00000E+00  9.000E+00
     -11     1     3     3     0     0  4.940849277E-01  5.031514113E-01  9.048697490E+01  9.048972267E+01  5.110000000E-04  0.00000E+00  9.000E+00
      21     1     1     2   501   502 -2.971625181E-01 -3.498461739E-01  1.717711646E+00  1.777985154E+00  2.107342426E-08  0.00000E+00  9.000E+00
#rwgt            1          21   223215.91763673961                3    17166505           0
<weights>
0.11134E+08
0.12393E+08
0.10052E+08
0.12120E+08
0.97542E+07
0.11110E+08
0.11148E+08
0.10914E+08
0.11450E+08
0.10785E+08
0.10736E+08
0.10956E+08
0.10935E+08
0.10789E+08
0.10752E+08
0.11182E+08
0.11288E+08
0.11516E+08
0.11552E+08
0.11528E+08
0.11494E+08
0.11568E+08
0.11560E+08
0.11544E+08
0.11262E+08
0.11316E+08
0.11437E+08
0.11509E+08
0.11379E+08
0.11559E+08
0.11565E+08
0.11166E+08
0.11235E+08
0.11122E+08
0.11182E+08
0.11028E+08
0.11283E+08
0.11213E+08
0.10987E+08
0.11171E+08
0.11100E+08
0.11205E+08
0.11059E+08
0.11551E+08
0.10754E+08
</weights>
</event>
<event>
      6  10001 -1.11453E+07  8.94427E-01 -1.00000E+00  6.02841E-01
      -5    -1     0     0     0   502  0.000000000E+00  0.000000000E+00  1.323712160E+00  1.323712160E+00  0.000000000E+00  0.00000E+00  9.000E+00
      21    -1     0     0   502   501  0.000000000E+00  0.000000000E+00 -1.228733957E+00  1.228733957E+00  0.000000000E+00  0.00000E+00  9.000E+00
      23     2     1     2     0     0  9.017506864E-02 -6.830704738E-01  1.712814421E-01  1.859236913E+00  1.718344480E+00  0.00000E+00  9.000E+00
      11     1     3     3     0     0  1.378295899E-01  5.688044835E-01  1.586664171E-01  6.063916468E-01  5.110000000E-04  0.00000E+00  9.000E+00
     -11     1     3     3     0     0 -4.765452127E-02 -1.251874957E+00  1.261502495E-02  1.252845267E+00  5.110000000E-04  0.00000E+00  9.000E+00
      -5     1     1     2     0   501 -9.017506864E-02  6.830704738E-01 -7.630323937E-02  6.932092033E-01  0.000000000E+00  0.00000E+00  9.000E+00
#rwgt            1           1  -150130.74312383644                3    17168916           0
<weights>
-.11145E+08
-.76245E+07
-.13614E+08
-.15382E+08
-.79307E+07
-.55142E+07
-.19522E+08
-.11216E+08
-.11074E+08
-.11040E+08
-.11121E+08
-.11054E+08
-.11166E+08
-.11097E+08
-.11120E+08
-.11192E+08
-.11050E+08
-.11161E+08
-.11148E+08
-.11146E+08
-.11160E+08
-.11142E+08
-.11184E+08
-.11067E+08
-.11245E+08
-.11153E+08
-.11053E+08
-.11107E+08
-.11128E+08
-.11094E+08
-.11153E+08
-.11091E+08
-.11201E+08
-.11163E+08
-.11120E+08
-.11243E+08
-.11054E+08
-.10821E+08
-.11447E+08
-.11072E+08
-.11210E+08
-.11144E+08
-.11147E+08
-.11191E+08
-.11090E+08
</weights>
</event>
<event>
      7  10001  1.11453E+07  9.04366E-01 -1.00000E+00  6.03009E-01
       2    -1     0     0   502     0  0.000000000E+00  0.000000000E+00  1.466331718E+01  1.466331718E+01  0.000000000E+00  0.00000E+00  9.000E+00
       2    -1     0     0   501     0  0.000000000E+00  0.000000000E+00 -7.985570336E+01  7.985570336E+01  0.000000000E+00  0.00000E+00  9.000E+00
      23     2     1     2     0     0 -9.972773184E-01  1.463940901E+00 -6.923578553E+01  6.929846279E+01  2.354837865E+00  0.00000E+00  9.000E+00
      11     1     3     3     0     0 -1.362384819E+00  1.478274371E+00 -3.319084941E+01  3.325167473E+01  5.110000000E-04  0.00000E+00  9.000E+00
     -11     1     3     3     0     0  3.651075001E-01 -1.433347053E-02 -3.604493612E+01  3.604678806E+01  5.110000000E-04  0.00000E+00  9.000E+00
       2     1     1     2   502     0  1.765279927E-01 -1.084139496E+00 -1.054605366E+01  1.060310183E+01  0.000000000E+00  0.00000E+00  9.000E+00
       2     1     1     2   501     0  8.207493256E-01 -3.798014049E-01  1.458945302E+01  1.461745593E+01  0.000000000E+00  0.00000E+00  9.000E+00
#rwgt            1          17   697402.15691499505                3    17171419           0
<weights>
0.11145E+08
0.14112E+08
0.84260E+07
0.83621E+07
0.12307E+08
0.15022E+08
0.49269E+07
0.11215E+08
0.11077E+08
0.11034E+08
0.11102E+08
0.11237E+08
0.10916E+08
0.11081E+08
0.11092E+08
0.11027E+08
0.11297E+08
0.10935E+08
0.11541E+08
0.11582E+08
0.10906E+08
0.11209E+08
0.11181E+08
0.11335E+08
0.11042E+08
0.11021E+08
0.11216E+08
0.11534E+08
0.10682E+08
0.11227E+08
0.11149E+08
0.11195E+08
0.11107E+08
0.10909E+08
0.11456E+08
0.11111E+08
0.11175E+08
0.11015E+08
0.11282E+08
0.11035E+08
0.11233E+08
0.11266E+08
0.11016E+08
0.11214E+08
0.11074E+08
</weights>
</event>
<event>
      7  10001  1.11453E+07  3.63137E+00 -1.00000E+00  2.70278E-01
      21    -1     0     0   502   501  0.000000000E+00  0.000000000E+00  9.577486634E+00  9.577486634E+00  0.000000000E+00  0.00000E+00  9.000E+00
      21    -1     0     0   501   511  0.000000000E+00  0.000000000E+00 -2.626275874E+01  2.626275874E+01  0.000000000E+00  0.00000E+00  9.000E+00
      23     2     1     2     0     0  1.118790107E+00  4.566973211E+00 -2.188216198E+00  6.440695008E+00  3.819074028E+00  0.00000E+00  9.000E+00
      11     1     3     3     0     0  9.285642238E-01 -2.560528127E-01  3.019305233E-01  1.009433932E+00  5.110000000E-04  0.00000E+00  9.000E+00
     -11     1     3     3     0     0  1.902258833E-01  4.823026024E+00 -2.490146722E+00  5.431261076E+00  5.110000000E-04  0.00000E+00  9.000E+00
       2     1     1     2   502     0  2.055621278E+00 -2.803456853E+00  6.884183195E+00  7.712128593E+00  0.000000000E+00  0.00000E+00  9.000E+00
      -2     1     1     2     0   511 -3.174411385E+00 -1.763516358E+00 -2.138123910E+01  2.168742177E+01  0.000000000E+00  0.00000E+00  9.000E+00
#rwgt            1          17   1580037.8044345083                3    17190143           0
<weights>
0.11145E+08
0.11930E+08
0.10324E+08
0.12307E+08
0.98000E+07
0.10698E+08
0.11564E+08
0.11099E+08
0.11189E+08
0.10861E+08
0.10846E+08
0.11017E+08
0.10966E+08
0.10873E+08
0.10857E+08
0.11124E+08
0.11343E+08
0.11402E+08
0.11495E+08
0.11489E+08
0.11383E+08
0.11468E+08
0.11472E+08
0.11349E+08
0.11322E+08
0.11359E+08
0.11063E+08
0.11504E+08
0.11196E+08
0.11457E+08
0.11454E+08
0.11159E+08
0.11229E+08
0.11116E+08
0.11213E+08
0.11029E+08
0.11284E+08
0.11106E+08
0.11092E+08
0.11145E+08
0.11142E+08
0.11224E+08
0.11062E+08
0.11464E+08
0.10853E+08
</weights>
</event>
<event>
      7  10001  1.11453E+07  1.44638E+00 -1.00000E+00  4.37951E-01
      -2    -1     0     0     0   502  0.000000000E+00  0.000000000E+00  1.221643728E-01  1.221643728E-01  0.000000000E+00  0.00000E+00  9.000E+00
      21    -1     0     0   511   501  0.000000000E+00  0.000000000E+00 -6.596291732E+02  6.596291732E+02  0.000000000E+00  0.00000E+00  9.000E+00
      23     2     1     2     0     0 -8.268455651E-01 -8.673359762E-01 -1.504750950E+01  1.513129960E+01  1.045342100E+00  0.00000E+00  9.000E+00
      11     1     3     3     0     0 -9.564400084E-01 -8.881259385E-01 -1.473025275E+01  1.478796442E+01  5.110000000E-04  0.00000E+00  9.000E+00
     -11     1     3     3     0     0  1.295944433E-01  2.078996225E-02 -3.172567481E-01  3.433351826E-01  5.110000000E-04  0.00000E+00  9.000E+00
      -2     1     1     2     0   501  2.271477043E+00  9.383938469E-01 -1.893084469E+01  1.908971115E+01  0.000000000E+00  0.00000E+00  9.000E+00
      21     1     1     2   511   502 -1.444631478E+00 -7.105787072E-02 -6.255286546E+02  6.255303268E+02  7.629394531E-06  0.00000E+00  9.000E+00
#rwgt            1           7   949013.15559703903                3    17199878           0
<weights>
0.11145E+08
0.12125E+08
0.10097E+08
0.12209E+08
0.98055E+07
0.10908E+08
0.11242E+08
0.11272E+08
0.11018E+08
0.10740E+08
0.10828E+08
0.10910E+08
0.11026E+08
0.10799E+08
0.10823E+08
0.11230E+08
0.11184E+08
0.11453E+08
0.11505E+08
0.11500E+08
0.11431E+08
0.11466E+08
0.11562E+08
0.11233E+08
0.11499E+08
0.11419E+08
0.11013E+08
0.11421E+08
0.11290E+08
0.11399E+08
0.11489E+08
0.11119E+08
0.11275E+08
0.11165E+08
0.11138E+08
0.11340E+08
0.10974E+08
0.10794E+08
0.11393E+08
0.11129E+08
0.11161E+08
0.11164E+08
0.11126E+08
0.11524E+08
0.10787E+08
</weights>
</event>
<event>
      7  10001  1.11453E+07  3.74478E+00 -1.00000E+00  2.67027E-01
       2    -1     0     0   501     0  0.000000000E+00  0.000000000E+00  2.813748637E+01  2.813748637E+01  0.000000000E+00  0.00000E+00  9.000E+00
      21    -1     0     0   502   501  0.000000000E+00  0.000000000E+00 -1.231876633E+00  1.231876633E+00  0.000000000E+00  0.00000E+00  9.000E+00
      23     2     1     2     0     0 -8.434200858E-02 -2.992788409E-01  2.791622020E+01  2.800821168E+01  2.246751019E+00  0.00000E+00  9.000E+00
      11     1     3     3     0     0 -4.669330930E-01  5.434925177E-01  3.407454897E+00  3.481976416E+00  5.110000000E-04  0.00000E+00  9.000E+00
     -11     1     3     3     0     0  3.825910844E-01 -8.427713587E-01  2.450876530E+01  2.452623527E+01  5.110000000E-04  0.00000E+00  9.000E+00
       2     1     1     2   511     0 -1.461327647E-01  1.065048417E-01  1.027358686E-01  2.079728947E-01  0.000000000E+00  0.00000E+00  9.000E+00
      21     1     1     2   502   511  2.304747733E-01  1.927739992E-01 -1.113346328E+00  1.153178426E+00  6.723710401E-07  0.00000E+00  9.000E+00
#rwgt            2         248   4420397.9703254765                3    17229554           0
<weights>
0.11145E+08
0.10810E+08
0.11301E+08
0.13139E+08
0.90552E+07
0.91702E+07
0.13910E+08
0.11198E+08
0.11090E+08
0.10854E+08
0.10859E+08
0.10971E+08
0.11036E+08
0.10877E+08
0.10868E+08
0.11224E+08
0.11184E+08
0.11423E+08
0.11435E+08
0.11431E+08
0.11401E+08
0.11448E+08
0.11472E+08
0.11316E+08
0.11338E+08
0.11289E+08
0.11160E+08
0.11392E+08
0.11325E+08
0.11420E+08
0.11460E+08
0.11170E+08
0.11214E+08
0.11139E+08
0.11170E+08
0.11232E+08
0.11074E+08
0.11076E+08
0.11141E+08
0.11152E+08
0.11140E+08
0.11175E+08
0.11115E+08
0.11460E+08
0.10854E+08
</weights>
</event>
<event>
      7  10001  1.11453E+07  8.94427E-01 -1.00000E+00  6.07649E-01
      -3    -1     0     0     0   501  0.000000000E+00  0.000000000E+00  1.499081611E+00  1.499081611E+00  0.000000000E+00  0.00000E+00  9.000E+00
      -2    -1     0     0     0   502  0.000000000E+00  0.000000000E+00 -6.355879449E+00  6.355879449E+00  0.000000000E+00  0.00000E+00  9.000E+00
      23     2     1     2     0     0 -4.351003907E-01  2.351569957E-01  5.554923374E-01  1.689476839E+00  1.516953885E+00  0.00000E+00  9.000E+00
      11     1     3     3     0     0  7.229677080E-02  8.014680230E-01  1.211293994E-01  8.137876919E-01  5.110000000E-04  0.00000E+00  9.000E+00
     -11     1     3     3     0     0 -5.073971615E-01 -5.663110272E-01  4.343629379E-01  8.756891469E-01  5.110000000E-04  0.00000E+00  9.000E+00
      -2     1     1     2     0   501  9.731279041E-01 -1.177769341E-01 -5.518305298E+00  5.604689348E+00  0.000000000E+00  0.00000E+00  9.000E+00
      -3     1     1     2     0   502 -5.380275134E-01 -1.173800616E-01  1.060151216E-01  5.607948735E-01  0.000000000E+00  0.00000E+00  9.000E+00
#rwgt            2          67   36006.113999906964                3    17229976           0
<weights>
0.11145E+08
0.11491E+08
0.10578E+08
0.13966E+08
0.84753E+07
0.91702E+07
0.13910E+08
0.11150E+08
0.11136E+08
0.10867E+08
0.10873E+08
0.10988E+08
0.11015E+08
0.10889E+08
0.10882E+08
0.11162E+08
0.11264E+08
0.11423E+08
0.11400E+08
0.11387E+08
0.11409E+08
0.11428E+08
0.11457E+08
0.11310E+08
0.11324E+08
0.11372E+08
0.11041E+08
0.11410E+08
0.11239E+08
0.11402E+08
0.11431E+08
0.11129E+08
0.11249E+08
0.11169E+08
0.11141E+08
0.11078E+08
0.11230E+08
0.11036E+08
0.11165E+08
0.11146E+08
0.11141E+08
0.11210E+08
0.11077E+08
0.11441E+08
0.10871E+08
</weights>
</event>
<event>
      6  10001 -1.11453E+07  8.94427E-01 -1.00000E+00  3.56368E-01
       2    -1     0     0   501     0  0.000000000E+00  0.000000000E+00  3.533276010E+02  3.533276010E+02  0.000000000E+00  0.00000E+00  9.000E+00
      21    -1     0     0   502   501  0.000000000E+00  0.000000000E+00 -2.124163291E-02  2.124163291E-02  0.000000000E+00  0.00000E+00  9.000E+00
      23     2     1     2     0     0  6.303771869E-01 -9.456292793E-01  3.237400439E+02  3.237606929E+02  3.475442188E+00  0.00000E+00  9.000E+00
      11     1     3     3     0     0 -1.373474390E+00 -8.781033741E-01  1.627579810E+02  1.627661448E+02  5.110000000E-04  0.00000E+00  9.000E+00
     -11     1     3     3     0     0  2.003851577E+00 -6.752590524E-02  1.609820628E+02  1.609945482E+02  5.110000000E-04  0.00000E+00  9.000E+00
       2     1     1     2   502     0 -6.303771869E-01  9.456292793E-01  2.956631552E+01  2.958814971E+01  0.000000000E+00  0.00000E+00  9.000E+00
#rwgt            1          24  -21940170.875245381                3    17230265           0
<weights>
-.11145E+08
-.12122E+08
-.99981E+07
-.14745E+08
-.80114E+07
-.91629E+07
-.13909E+08
-.11178E+08
-.11113E+08
-.10841E+08
-.10841E+08
-.10969E+08
-.11021E+08
-.10863E+08
-.10850E+08
-.11223E+08
-.11196E+08
-.11435E+08
-.11472E+08
-.11461E+08
-.11413E+08
-.11468E+08
-.11492E+08
-.11376E+08
-.11325E+08
-.11277E+08
-.11315E+08
-.11405E+08
-.11348E+08
-.11443E+08
-.11481E+08
-.11174E+08
-.11217E+08
-.11141E+08
-.11171E+08
-.11214E+08
-.11094E+08
-.11097E+08
-.11124E+08
-.11157E+08
-.11135E+08
-.11181E+08
-.11108E+08
-.11478E+08
-.10838E+08
</weights>
</event>
<event>
      6  10001 -1.11453E+07  8.94427E-01 -1.00000E+00  5.93498E-01
      21    -1     0     0   502   501  0.000000000E+00  0.000000000E+00  6.632408677E-03  6.632408677E-03  0.000000000E+00  0.00000E+00  9.000E+00
      -2    -1     0     0     0   502  0.000000000E+00  0.000000000E+00 -1.201161447E+02  1.201161447E+02  0.000000000E+00  0.00000E+00  9.000E+00
      23     2     1     2     0     0 -3.910770990E-01 -2.721703619E-01 -9.398043623E+01  9.398935724E+01  1.204102638E+00  0.00000E+00  9.000E+00
      11     1     3     3     0     0 -6.656357647E-01  2.381702032E-01 -5.692609463E+01  5.693048433E+01  5.110000000E-04  0.00000E+00  9.000E+00
     -11     1     3     3     0     0  2.745586657E-01 -5.103405651E-01 -3.705434160E+01  3.705887291E+01  5.110000000E-04  0.00000E+00  9.000E+00
      -2     1     1     2     0   501  3.910770990E-01  2.721703619E-01 -2.612907607E+01  2.613341988E+01  0.000000000E+00  0.00000E+00  9.000E+00
#rwgt            1          14  -4005459.8181382949                3    17231175           0
<weights>
-.11148E+08
-.12016E+08
-.10208E+08
-.14652E+08
-.81813E+07
-.91405E+07
-.13910E+08
-.11148E+08
-.11144E+08
-.11208E+08
-.11230E+08
-.11109E+08
-.11190E+08
-.11243E+08
-.11239E+08
-.11052E+08
-.11191E+08
-.11109E+08
-.10957E+08
-.10931E+08
-.11130E+08
-.11042E+08
-.11022E+08
-.11139E+08
-.11033E+08
-.11088E+08
-.11142E+08
-.11056E+08
-.10981E+08
-.11040E+08
-.11048E+08
-.11157E+08
-.11104E+08
-.11295E+08
-.11001E+08
-.11079E+08
-.11194E+08
-.11122E+08
-.11199E+08
-.11100E+08
-.11176E+08
-.11283E+08
-.11002E+08
-.11049E+08
-.11230E+08
</weights>
</event>
<event>
      6  10001 -1.11453E+07  8.94427E-01 -1.00000E+00  4.67643E-01
      21    -1     0     0   502   501  0.000000000E+00  0.000000000E+00  5.128900220E-01  5.128900220E-01  0.000000000E+00  0.00000E+00  9.000E+00
       2    -1     0     0   501     0  0.000000000E+00  0.000000000E+00 -1.163238897E+00  1.163238897E+00  0.000000000E+00  0.00000E+00  9.000E+00
      23     2     1     2     0     0 -1.822107978E-01 -1.983059631E-01 -5.723261700E-01  1.395747799E+00  1.244197993E+00  0.00000E+00  9.000E+00
      11     1     3     3     0     0  4.042701895E-01 -4.670425844E-01 -1.919814465E-01  6.468541556E-01  5.110000000E-04  0.00000E+00  9.000E+00
     -11     1     3     3     0     0 -5.864809873E-01  2.687366213E-01 -3.803447234E-01  7.488936438E-01  5.110000000E-04  0.00000E+00  9.000E+00
       2     1     1     2   502     0  1.822107978E-01  1.983059631E-01 -7.802270545E-02  2.803811199E-01  0.000000000E+00  0.00000E+00  9.000E+00
#rwgt            1          17  -1246385.4779841965                3    17232296           0
<weights>
-.11145E+08
-.83349E+07
-.12962E+08
-.17274E+08
-.65460E+07
-.47504E+07
-.20695E+08
-.11450E+08
-.10812E+08
-.10920E+08
-.10991E+08
-.10970E+08
-.11149E+08
-.10967E+08
-.10990E+08
-.11278E+08
-.11020E+08
-.11291E+08
-.11319E+08
-.11326E+08
-.11272E+08
-.11292E+08
-.11360E+08
-.11129E+08
-.11369E+08
-.11198E+08
-.11139E+08
-.11214E+08
-.11294E+08
-.11241E+08
-.11326E+08
-.11164E+08
-.11174E+08
-.11147E+08
-.11141E+08
-.11489E+08
-.10794E+08
-.10905E+08
-.11314E+08
-.11118E+08
-.11174E+08
-.11115E+08
-.11178E+08
-.11340E+08
-.10957E+08
</weights>
</event>
<event>
      7  10001  1.11453E+07  1.82205E+00 -1.00000E+00  3.72169E-01
      -2    -1     0     0     0   501  0.000000000E+00  0.000000000E+00  2.788312304E+02  2.788312304E+02  0.000000000E+00  0.00000E+00  9.000E+00
       4    -1     0     0   501     0  0.000000000E+00  0.000000000E+00 -4.385332745E-02  4.385332745E-02  0.000000000E+00  0.00000E+00  9.000E+00
      23     2     1     2     0     0 -1.314951999E+00 -1.440392623E-01  5.268542180E+01  5.271537951E+01  1.186474253E+00  0.00000E+00  9.000E+00
      11     1     3     3     0     0 -1.246518840E-02  3.047719369E-01  4.531163396E+00  4.541418643E+00  5.110000000E-04  0.00000E+00  9.000E+00
     -11     1     3     3     0     0 -1.302486811E+00 -4.488111992E-01  4.815425840E+01  4.817396087E+01  5.110000000E-04  0.00000E+00  9.000E+00
       4     1     1     2   502     0  2.142075054E+00  1.767534847E+00  8.363143172E+01  8.367753006E+01  0.000000000E+00  0.00000E+00  9.000E+00
      -2     1     1     2     0   502 -8.271230544E-01 -1.623495585E+00  1.424705235E+02  1.424821741E+02  0.000000000E+00  0.00000E+00  9.000E+00
#rwgt            1          19   447540.68419103482                3    17236684           0
<weights>
0.11145E+08
0.12167E+08
0.10017E+08
0.12639E+08
0.94781E+07
0.10647E+08
0.11642E+08
0.11153E+08
0.11140E+08
0.10775E+08
0.10740E+08
0.10943E+08
0.10966E+08
0.10783E+08
0.10754E+08
0.11234E+08
0.11249E+08
0.11533E+08
0.11589E+08
0.11573E+08
0.11505E+08
0.11589E+08
0.11596E+08
0.11510E+08
0.11336E+08
0.11308E+08
0.11467E+08
0.11512E+08
0.11435E+08
0.11574E+08
0.11600E+08
0.11208E+08
0.11219E+08
0.11131E+08
0.11193E+08
0.11191E+08
0.11122E+08
0.11226E+08
0.10990E+08
0.11190E+08
0.11107E+08
0.11197E+08
0.11091E+08
0.11579E+08
0.10750E+08
</weights>
</event>
<event>
      7  10001  1.11453E+07  3.16647E+01 -1.00000E+00  1.51351E-01
       2    -1     0     0   501     0  0.000000000E+00  0.000000000E+00  1.980023523E+01  1.980023523E+01  0.000000000E+00  0.00000E+00  9.000E+00
      21    -1     0     0   502   501  0.000000000E+00  0.000000000E+00 -1.387224926E+01  1.387224926E+01  0.000000000E+00  0.00000E+00  9.000E+00
      23     2     1     2     0     0  3.079234735E+00  1.344516718E+00  1.750019735E+01  1.793515271E+01  2.030611663E+00  0.00000E+00  9.000E+00
      11     1     3     3     0     0  4.190181377E-01  1.952996115E-01  4.666708274E-01  6.568866418E-01  5.110000000E-04  0.00000E+00  9.000E+00
     -11     1     3     3     0     0  2.660216597E+00  1.149217107E+00  1.703352653E+01  1.727826607E+01  5.110000000E-04  0.00000E+00  9.000E+00
       2     1     1     2   511     0 -5.421127685E-01 -1.852288393E-01  1.897358593E+00  1.981960042E+00  0.000000000E+00  0.00000E+00  9.000E+00
      21     1     1     2   502   511 -2.537121967E+00 -1.159287879E+00 -1.346956998E+01  1.375537174E+01  7.454156018E-06  0.00000E+00  9.000E+00
#rwgt            2         248   8345645.8005234785                3    17244085           0
<weights>
0.11145E+08
0.10079E+08
0.12277E+08
0.12250E+08
0.98370E+07
0.91702E+07
0.13910E+08
0.11213E+08
0.11076E+08
0.10908E+08
0.10944E+08
0.10990E+08
0.11086E+08
0.10943E+08
0.10949E+08
0.11208E+08
0.11152E+08
0.11339E+08
0.11347E+08
0.11344E+08
0.11325E+08
0.11346E+08
0.11387E+08
0.11213E+08
0.11336E+08
0.11287E+08
0.11072E+08
0.11311E+08
0.11243E+08
0.11310E+08
0.11359E+08
0.11139E+08
0.11215E+08
0.11146E+08
0.11154E+08
0.11257E+08
0.11047E+08
0.10967E+08
0.11258E+08
0.11125E+08
0.11165E+08
0.11158E+08
0.11133E+08
0.11375E+08
0.10928E+08
</weights>
</event>
<event>
      6  10001  1.11453E+07  8.94427E-01 -1.00000E+00  6.05415E-01
      -2    -1     0     0     0   502  0.000000000E+00  0.000000000E+00  5.917795920E-02  5.917795920E-02  0.000000000E+00  0.00000E+00  9.000E+00
       2    -1     0     0   501     0  0.000000000E+00  0.000000000E+00 -3.373212238E+02  3.373212238E+02  0.000000000E+00  0.00000E+00  9.000E+00
      23     2     1     2     0     0  5.143008696E-01  3.998599768E-01 -6.878488820E+00  6.996202466E+00  1.099475831E+00  0.00000E+00  9.000E+00
      11     1     3     3     0     0 -2.373779095E-01 -1.750332749E-01 -2.452990634E+00  2.470657449E+00  5.110000000E-04  0.00000E+00  9.000E+00
     -11     1     3     3     0     0  7.516787790E-01  5.748932517E-01 -4.425498186E+00  4.525545016E+00  5.110000000E-04  0.00000E+00  9.000E+00
      21     1     1     2   501   502 -5.143008696E-01 -3.998599768E-01 -3.303835570E+02  3.303841993E+02  0.000000000E+00  0.00000E+00  9.000E+00
#rwgt            1           8   8031744.7285700757                3    17244488           0
<weights>
0.11145E+08
0.11311E+08
0.10979E+08
0.12196E+08
0.99318E+07
0.10271E+08
0.12221E+08
0.11126E+08
0.11164E+08
0.11171E+08
0.11163E+08
0.11057E+08
0.11253E+08
0.11165E+08
0.11163E+08
0.11365E+08
0.10814E+08
0.11329E+08
0.10843E+08
0.10807E+08
0.11348E+08
0.11102E+08
0.11156E+08
0.11137E+08
0.11102E+08
0.11186E+08
0.11111E+08
0.10928E+08
0.11340E+08
0.11089E+08
0.11158E+08
0.11021E+08
0.11264E+08
0.11322E+08
0.10914E+08
0.11129E+08
0.11158E+08
0.11169E+08
0.11122E+08
0.11194E+08
0.11099E+08
0.11151E+08
0.11138E+08
0.11122E+08
0.11168E+08
</weights>
</event>
<event>
      6  10001 -1.11453E+07  8.94427E-01 -1.00000E+00  5.90124E-01
      21    -1     0     0   502   501  0.000000000E+00  0.000000000E+00  1.414033173E-02  1.414033173E-02  0.000000000E+00  0.00000E+00  9.000E+00
       2    -1     0     0   501     0  0.000000000E+00  0.000000000E+00 -8.740270002E+01  8.740270002E+01  0.000000000E+00  0.00000E+00  9.000E+00
      23     2     1     2     0     0 -2.562445069E-01  1.367689750E-01 -8.404458979E+01  8.406027936E+01  1.597850551E+00  0.00000E+00  9.000E+00
      11     1     3     3     0     0 -8.654880912E-01  3.895674650E-01 -5.510719150E+01  5.511536435E+01  5.110000000E-04  0.00000E+00  9.000E+00
     -11     1     3     3     0     0  6.092435843E-01 -2.527984899E-01 -2.893739829E+01  2.894491501E+01  5.110000000E-04  0.00000E+00  9.000E+00
       2     1     1     2   502     0  2.562445069E-01 -1.367689750E-01 -3.343969901E+00  3.356560993E+00  0.000000000E+00  0.00000E+00  9.000E+00
#rwgt            1          17  -7364149.9030625578                3    17248058           0
<weights>
-.11145E+08
-.12183E+08
-.99725E+07
-.14806E+08
-.79905E+07
-.91702E+07
-.13910E+08
-.11159E+08
-.11132E+08
-.11140E+08
-.11161E+08
-.11161E+08
-.11108E+08
-.11160E+08
-.11161E+08
-.11167E+08
-.11077E+08
-.11078E+08
-.11179E+08
-.11187E+08
-.11073E+08
-.11125E+08
-.11119E+08
-.11232E+08
-.11030E+08
-.11068E+08
-.11178E+08
-.11225E+08
-.10968E+08
-.11133E+08
-.11114E+08
-.11129E+08
-.11153E+08
-.11087E+08
-.11216E+08
-.11133E+08
-.11152E+08
-.11109E+08
-.11192E+08
-.11095E+08
-.11185E+08
-.11195E+08
-.11092E+08
-.11131E+08
-.11154E+08
</weights>
</event>
<event>
      7  10001  1.11453E+07  8.94427E-01 -1.00000E+00  6.07649E-01
      -4    -1     0     0     0   502  0.000000000E+00  0.000000000E+00  1.736596365E-01  1.736596365E-01  0.000000000E+00  0.00000E+00  9.000E+00
      21    -1     0     0   502   501  0.000000000E+00  0.000000000E+00 -9.396171758E+00  9.396171758E+00  0.000000000E+00  0.00000E+00  9.000E+00
      23     2     1     2     0     0 -2.568719237E-01  7.200682543E-03 -8.890368417E+00  9.053213451E+00  1.689966915E+00  0.00000E+00  9.000E+00
      11     1     3     3     0     0 -1.697104409E-01  2.793997969E-01 -2.588824967E-01  4.169967488E-01  5.110000000E-04  0.00000E+00  9.000E+00
     -11     1     3     3     0     0 -8.716148288E-02 -2.721991144E-01 -8.631485920E+00  8.636216702E+00  5.110000000E-04  0.00000E+00  9.000E+00
      -4     1     1     2     0   511  8.120980008E-02  2.461255953E-02 -3.272055604E-01  3.380300112E-01  0.000000000E+00  0.00000E+00  9.000E+00
      21     1     1     2   511   501  1.756621237E-01 -3.181324207E-02 -4.938143942E-03  1.785879316E-01  2.634255204E-08  0.00000E+00  9.000E+00
#rwgt            2          41   308803.88950836618                3    17249182           0
<weights>
0.11145E+08
0.11740E+08
0.10221E+08
0.14269E+08
0.81893E+07
0.91702E+07
0.13910E+08
0.11210E+08
0.11078E+08
0.10896E+08
0.10924E+08
0.10985E+08
0.11074E+08
0.10927E+08
0.10929E+08
0.11213E+08
0.11159E+08
0.11361E+08
0.11366E+08
0.11363E+08
0.11344E+08
0.11371E+08
0.11407E+08
0.11234E+08
0.11338E+08
0.11289E+08
0.11081E+08
0.11331E+08
0.11263E+08
0.11337E+08
0.11383E+08
0.11148E+08
0.11213E+08
0.11144E+08
0.11159E+08
0.11251E+08
0.11052E+08
0.10995E+08
0.11223E+08
0.11132E+08
0.11158E+08
0.11162E+08
0.11129E+08
0.11395E+08
0.10911E+08
</weights>
</event>
<event>
      6  10001  1.11453E+07  8.94427E-01 -1.00000E+00  5.84196E-01
       2    -1     0     0   501     0  0.000000000E+00  0.000000000E+00  3.823488831E-02  3.823488831E-02  0.000000000E+00  0.00000E+00  9.000E+00
      21    -1     0     0   502   501  0.000000000E+00  0.000000000E+00 -3.426321140E+01  3.426321140E+01  0.000000000E+00  0.00000E+00  9.000E+00
      23     2     1     2     0     0 -3.649312373E-01  1.531757702E-01 -9.498845617E+00  9.572148145E+00  1.114142915E+00  0.00000E+00  9.000E+00
      11     1     3     3     0     0 -1.911919979E-01  3.380023075E-01 -1.050219485E+00  1.119714770E+00  5.110000000E-04  0.00000E+00  9.000E+00
     -11     1     3     3     0     0 -1.737392395E-01 -1.848265373E-01 -8.448626132E+00  8.452433375E+00  5.110000000E-04  0.00000E+00  9.000E+00
       2     1     1     2   502     0  3.649312373E-01 -1.531757702E-01 -2.472613090E+01  2.472929814E+01  0.000000000E+00  0.00000E+00  9.000E+00
#rwgt            1          24   1165184.4621034553                3    17249319           0
<weights>
0.11145E+08
0.12709E+08
0.94852E+07
0.12532E+08
0.95152E+07
0.11144E+08
0.10880E+08
0.11316E+08
0.10974E+08
0.10605E+08
0.10730E+08
0.10849E+08
0.10969E+08
0.10681E+08
0.10717E+08
0.11248E+08
0.11209E+08
0.11549E+08
0.11634E+08
0.11628E+08
0.11520E+08
0.11571E+08
0.11704E+08
0.11263E+08
0.11617E+08
0.11502E+08
0.10984E+08
0.11511E+08
0.11341E+08
0.11481E+08
0.11602E+08
0.11104E+08
0.11325E+08
0.11177E+08
0.11129E+08
0.11397E+08
0.10925E+08
0.10680E+08
0.11483E+08
0.11139E+08
0.11152E+08
0.11175E+08
0.11115E+08
0.11649E+08
0.10670E+08
</weights>
</event>
<event>
      7  10001  1.11453E+07  2.68744E+00 -1.00000E+00  3.06709E-01
      -4    -1     0     0     0   502  0.000000000E+00  0.000000000E+00  4.899683107E+00  4.899683107E+00  0.000000000E+00  0.00000E+00  9.000E+00
      21    -1     0     0   502   501  0.000000000E+00  0.000000000E+00 -9.294480873E-01  9.294480873E-01  0.000000000E+00  0.00000E+00  9.000E+00
      23     2     1     2     0     0 -1.650084969E-02 -5.247243589E-01  3.727455125E+00  3.914941937E+00  1.075751243E+00  0.00000E+00  9.000E+00
      11     1     3     3     0     0 -8.087084788E-02 -3.477185911E-01  2.582192193E-01  4.405970256E-01  5.110000000E-04  0.00000E+00  9.000E+00
     -11     1     3     3     0     0  6.436999820E-02 -1.770057678E-01  3.469235905E+00  3.474344912E+00  5.110000000E-04  0.00000E+00  9.000E+00
      -4     1     1     2     0   511  7.363167553E-01 -1.039695637E-01  5.335382707E-01  9.152240822E-01  0.000000000E+00  0.00000E+00  9.000E+00
      21     1     1     2   511   501 -7.198159056E-01  6.286939226E-01 -2.907583760E-01  9.989651743E-01  6.430848130E-08  0.00000E+00  9.000E+00
#rwgt            2          41   1655967.8673881670                3    17322254           0
<weights>
0.11145E+08
0.11780E+08
0.10160E+08
0.14317E+08
0.81411E+07
0.91702E+07
0.13910E+08
0.11196E+08
0.11092E+08
0.10849E+08
0.10853E+08
0.10969E+08
0.11032E+08
0.10872E+08
0.10862E+08
0.11225E+08
0.11187E+08
0.11429E+08
0.11444E+08
0.11438E+08
0.11407E+08
0.11455E+08
0.11479E+08
0.11326E+08
0.11338E+08
0.11289E+08
0.11173E+08
0.11398E+08
0.11332E+08
0.11428E+08
0.11467E+08
0.11172E+08
0.11214E+08
0.11139E+08
0.11171E+08
0.11230E+08
0.11077E+08
0.11084E+08
0.11133E+08
0.11154E+08
0.11139E+08
0.11176E+08
0.11113E+08
0.11466E+08
0.10848E+08
</weights>
</event>
<event>
      7  10001  1.11453E+07  8.94427E-01 -1.00000E+00  6.07649E-01
      21    -1     0     0   502   501  0.000000000E+00  0.000000000E+00  1.834860751E+00  1.834860751E+00  0.000000000E+00  0.00000E+00  9.000E+00
       3    -1     0     0   501     0  0.000000000E+00  0.000000000E+00 -4.348173257E-01  4.348173257E-01  0.000000000E+00  0.00000E+00  9.000E+00
      23     2     1     2     0     0  2.198698437E-02 -8.608448773E-02  1.216176098E+00  1.891954820E+00  1.446552720E+00  0.00000E+00  9.000E+00
      11     1     3     3     0     0 -4.707141553E-01 -3.478593318E-02 -1.027665346E-01  4.830559997E-01  5.110000000E-04  0.00000E+00  9.000E+00
     -11     1     3     3     0     0  4.927011396E-01 -5.129855455E-02  1.318942633E+00  1.408898820E+00  5.110000000E-04  0.00000E+00  9.000E+00
       3     1     1     2   512     0 -9.836484782E-02 -3.042327564E-02  2.119265785E-01  2.356142900E-01  0.000000000E+00  0.00000E+00  9.000E+00
      21     1     1     2   502   512  7.637786346E-02  1.165077634E-01 -2.805925146E-02  1.421089672E-01  1.111751086E-08  0.00000E+00  9.000E+00
#rwgt            2         192   32184.449543414099                3    17327331           0
<weights>
0.11145E+08
0.12112E+08
0.98953E+07
0.14720E+08
0.79287E+07
0.91702E+07
0.13910E+08
0.11188E+08
0.11099E+08
0.10816E+08
0.10812E+08
0.10987E+08
0.10974E+08
0.10834E+08
0.10821E+08
0.11221E+08
0.11190E+08
0.11357E+08
0.11763E+08
0.11694E+08
0.11347E+08
0.11497E+08
0.11543E+08
0.11875E+08
0.11137E+08
0.10992E+08
0.13067E+08
0.11341E+08
0.11534E+08
0.11475E+08
0.11531E+08
0.11203E+08
0.11200E+08
0.11141E+08
0.11175E+08
0.11226E+08
0.11082E+08
0.11146E+08
0.11068E+08
0.11173E+08
0.11121E+08
0.11192E+08
0.11097E+08
0.11511E+08
0.10809E+08
</weights>
</event>
<event>
      6  10001  1.11453E+07  8.94427E-01 -1.00000E+00  5.99956E-01
      21    -1     0     0   502   501  0.000000000E+00  0.000000000E+00  2.644109212E+01  2.644109212E+01  0.000000000E+00  0.00000E+00  9.000E+00
      -2    -1     0     0     0   502  0.000000000E+00  0.000000000E+00 -8.723881518E-02  8.723881518E-02  0.000000000E+00  0.00000E+00  9.000E+00
      23     2     1     2     0     0  3.682566446E-01 -6.690978994E-01  1.564833884E+01  1.579560784E+01  2.011818534E+00  0.00000E+00  9.000E+00
      11     1     3     3     0     0  5.154379084E-01 -8.196811256E-01  3.149185828E+00  3.294681324E+00  5.110000000E-04  0.00000E+00  9.000E+00
     -11     1     3     3     0     0 -1.471812638E-01  1.505832261E-01  1.249915301E+01  1.250092652E+01  5.110000000E-04  0.00000E+00  9.000E+00
      -2     1     1     2     0   501 -3.682566446E-01  6.690978994E-01  1.070551447E+01  1.073272309E+01  0.000000000E+00  0.00000E+00  9.000E+00
#rwgt            1          14   506796.11994487047                3    17328722           0
<weights>
0.11145E+08
0.13672E+08
0.87019E+07
0.12325E+08
0.96448E+07
0.12009E+08
0.95522E+07
0.10861E+08
0.11528E+08
0.10789E+08
0.10731E+08
0.10969E+08
0.10929E+08
0.10791E+08
0.10747E+08
0.11181E+08
0.11328E+08
0.11548E+08
0.11567E+08
0.11542E+08
0.11526E+08
0.11599E+08
0.11584E+08
0.11574E+08
0.11264E+08
0.11350E+08
0.11386E+08
0.11546E+08
0.11386E+08
0.11594E+08
0.11592E+08
0.11172E+08
0.11257E+08
0.11134E+08
0.11195E+08
0.10983E+08
0.11357E+08
0.11246E+08
0.10977E+08
0.11186E+08
0.11107E+08
0.11228E+08
0.11058E+08
0.11576E+08
0.10753E+08
</weights>
</event>
<event>
      7  10001  1.11453E+07  6.16287E+00 -1.00000E+00  2.22631E-01
      21    -1     0     0   511   501  0.000000000E+00  0.000000000E+00  7.510047473E-01  7.510047473E-01  0.000000000E+00  0.00000E+00  9.000E+00
       2    -1     0     0   501     0  0.000000000E+00  0.000000000E+00 -2.516266655E+02  2.516266655E+02  0.000000000E+00  0.00000E+00  9.000E+00
      23     2     1     2     0     0 -4.647986851E+00  6.887091405E+00 -4.282167701E+01  4.390269813E+01  4.971425542E+00  0.00000E+00  9.000E+00
      11     1     3     3     0     0 -5.339075538E+00  7.081773174E+00 -4.091796080E+01  4.186808755E+01  5.110000000E-04  0.00000E+00  9.000E+00
     -11     1     3     3     0     0  6.910886871E-01 -1.946817690E-01 -1.903716209E+00  2.034610584E+00  5.110000000E-04  0.00000E+00  9.000E+00
       2     1     1     2   502     0  4.313027233E+00 -7.333358563E-01 -1.553967684E+02  1.554583405E+02  0.000000000E+00  0.00000E+00  9.000E+00
      21     1     1     2   511   502  3.349596179E-01 -6.153755548E+00 -5.265721530E+01  5.301663162E+01  9.536743164E-07  0.00000E+00  9.000E+00
#rwgt            1          17   2911715.9785392364                3    17350052           0
<weights>
0.11145E+08
0.10231E+08
0.12815E+08
0.10625E+08
0.11621E+08
0.10473E+08
0.11911E+08
0.11131E+08
0.11158E+08
0.11172E+08
0.11172E+08
0.11118E+08
0.11184E+08
0.11174E+08
0.11172E+08
0.11296E+08
0.10900E+08
0.11195E+08
0.10999E+08
0.10987E+08
0.11200E+08
0.11103E+08
0.11130E+08
0.11197E+08
0.11037E+08
0.11101E+08
0.11159E+08
0.11074E+08
0.11144E+08
0.11107E+08
0.11128E+08
0.11072E+08
0.11208E+08
0.11188E+08
0.11079E+08
0.11143E+08
0.11143E+08
0.11170E+08
0.11121E+08
0.11146E+08
0.11141E+08
0.11172E+08
0.11117E+08
0.11114E+08
0.11173E+08
</weights>
</event>
<event>
      6  10001 -1.11453E+07  8.94427E-01 -1.00000E+00  5.86268E-01
      21    -1     0     0   502   501  0.000000000E+00  0.000000000E+00  1.303770684E-01  1.303770684E-01  0.000000000E+00  0.00000E+00  9.000E+00
       4    -1     0     0   501     0  0.000000000E+00  0.000000000E+00 -7.823062577E+00  7.823062577E+00  0.000000000E+00  0.00000E+00  9.000E+00
      23     2     1     2     0     0  3.014220555E-01 -2.758351584E-01 -7.195830304E+00  7.310162579E+00  1.221295572E+00  0.00000E+00  9.000E+00
      11     1     3     3     0     0 -4.009961178E-01 -3.582819025E-01 -2.213263066E+00  2.277651745E+00  5.110000000E-04  0.00000E+00  9.000E+00
     -11     1     3     3     0     0  7.024181734E-01  8.244674411E-02 -4.982567238E+00  5.032510834E+00  5.110000000E-04  0.00000E+00  9.000E+00
       4     1     1     2   502     0 -3.014220555E-01  2.758351584E-01 -4.968552045E-01  6.432770666E-01  0.000000000E+00  0.00000E+00  9.000E+00
#rwgt            1          19  -300402.61360464315                3    17356764           0
<weights>
-.11145E+08
-.23802E+07
-.17861E+08
-.19147E+08
-.55739E+07
0.90189E+06
-.29371E+08
-.11170E+08
-.11128E+08
-.11401E+08
-.11548E+08
-.11223E+08
-.11373E+08
-.11492E+08
-.11540E+08
-.11125E+08
-.10848E+08
-.10719E+08
-.10682E+08
-.10672E+08
-.10757E+08
-.10656E+08
-.10668E+08
-.10827E+08
-.10939E+08
-.10810E+08
-.11215E+08
-.10638E+08
-.10859E+08
-.10603E+08
-.10656E+08
-.10995E+08
-.11153E+08
-.11197E+08
-.11051E+08
-.11162E+08
-.11121E+08
-.10644E+08
-.11832E+08
-.10957E+08
-.11310E+08
-.11103E+08
-.11189E+08
-.10732E+08
-.11498E+08
</weights>
</event>
<event>
      6  10001 -1.11453E+07  8.94427E-01 -1.00000E+00  2.27246E-01
      21    -1     0     0   502   501  0.000000000E+00  0.000000000E+00  1.778323548E-03  1.778323548E-03  0.000000000E+00  0.00000E+00  9.000E+00
       2    -1     0     0   501     0  0.000000000E+00  0.000000000E+00 -7.813615947E+02  7.813615947E+02  0.000000000E+00  0.00000E+00  9.000E+00
      23     2     1     2     0     0  2.584173161E-01 -9.176607537E-02 -7.520577561E+02  7.520600296E+02  1.828764959E+00  0.00000E+00  9.000E+00
      11     1     3     3     0     0 -3.818118032E-01 -8.001084406E-01 -3.968414227E+02  3.968424130E+02  5.110000000E-04  0.00000E+00  9.000E+00
     -11     1     3     3     0     0  6.402291193E-01  7.083423652E-01 -3.552163335E+02  3.552176167E+02  5.110000000E-04  0.00000E+00  9.000E+00
       2     1     1     2   502     0 -2.584173161E-01  9.176607537E-02 -2.930206021E+01  2.930334338E+01  0.000000000E+00  0.00000E+00  9.000E+00
#rwgt            1          17  -28143804.502424609                3    17363747           0
<weights>
-.11145E+08
-.10906E+08
-.11311E+08
-.13254E+08
-.90631E+07
-.91702E+07
-.13910E+08
-.11135E+08
-.11155E+08
-.11163E+08
-.11139E+08
-.10921E+08
-.11395E+08
-.11152E+08
-.11146E+08
-.10979E+08
-.11379E+08
-.11584E+08
-.10551E+08
-.10456E+08
-.11645E+08
-.11121E+08
-.11166E+08
-.10931E+08
-.11332E+08
-.11581E+08
-.10884E+08
-.10555E+08
-.11837E+08
-.11048E+08
-.11212E+08
-.11129E+08
-.11158E+08
-.11748E+08
-.10433E+08
-.11053E+08
-.11231E+08
-.11120E+08
-.11183E+08
-.11322E+08
-.10990E+08
-.11117E+08
-.11174E+08
-.11139E+08
-.11152E+08
</weights>
</event>
<event>
      6  10001 -1.11453E+07  8.94427E-01 -1.00000E+00  3.93328E-01
       1    -1     0     0   501     0  0.000000000E+00  0.000000000E+00  1.498871629E-02  1.498871629E-02  0.000000000E+00  0.00000E+00  9.000E+00
      -1    -1     0     0     0   502  0.000000000E+00  0.000000000E+00 -1.018787676E+02  1.018787676E+02  0.000000000E+00  0.00000E+00  9.000E+00
      23     2     1     2     0     0 -1.136443364E-01  3.321253876E-01 -2.961408505E+01  2.964320973E+01  1.265949329E+00  0.00000E+00  9.000E+00
      11     1     3     3     0     0 -4.162537928E-01  6.398365930E-01 -1.224800844E+01  1.227177123E+01  5.110000000E-04  0.00000E+00  9.000E+00
     -11     1     3     3     0     0  3.026094564E-01 -3.077112054E-01 -1.736607661E+01  1.737143850E+01  5.110000000E-04  0.00000E+00  9.000E+00
      21     1     1     2   501   502  1.136443364E-01 -3.321253876E-01 -7.224969385E+01  7.225054660E+01  1.651812370E-06  0.00000E+00  9.000E+00
#rwgt            1          21  -90014.058457849125                3    17363958           0
<weights>
-.11145E+08
-.12586E+08
-.95380E+07
-.15297E+08
-.76424E+07
-.91702E+07
-.13910E+08
-.11165E+08
-.11124E+08
-.11164E+08
-.11202E+08
-.11101E+08
-.11152E+08
-.11206E+08
-.11205E+08
-.11047E+08
-.11207E+08
-.11139E+08
-.10987E+08
-.10959E+08
-.11159E+08
-.11070E+08
-.11060E+08
-.11145E+08
-.11067E+08
-.11121E+08
-.11123E+08
-.11079E+08
-.10988E+08
-.11061E+08
-.11078E+08
-.11143E+08
-.11122E+08
-.11307E+08
-.10985E+08
-.11062E+08
-.11206E+08
-.11087E+08
-.11229E+08
-.11109E+08
-.11162E+08
-.11299E+08
-.10980E+08
-.11082E+08
-.11194E+08
</weights>
</event>
<event>
      6  10001 -1.11453E+07  8.94427E-01 -1.00000E+00  1.67087E-01
      21    -1     0     0   502   501  0.000000000E+00  0.000000000E+00  2.221893091E-02  2.221893091E-02  0.000000000E+00  0.00000E+00  9.000E+00
       2    -1     0     0   501     0  0.000000000E+00  0.000000000E+00 -6.940291383E+01  6.940291383E+01  0.000000000E+00  0.00000E+00  9.000E+00
      23     2     1     2     0     0  2.840535873E-01 -3.084592092E-01 -5.781124471E+01  5.784808602E+01  2.021189731E+00  0.00000E+00  9.000E+00
      11     1     3     3     0     0  3.575658799E-01 -7.019385270E-01 -5.526126142E+01  5.526687602E+01  5.110000000E-04  0.00000E+00  9.000E+00
     -11     1     3     3     0     0 -7.351229255E-02  3.934793178E-01 -2.549983289E+00  2.581210000E+00  5.110000000E-04  0.00000E+00  9.000E+00
       2     1     1     2   502     0 -2.840535873E-01  3.084592092E-01 -1.156945019E+01  1.157704674E+01  0.000000000E+00  0.00000E+00  9.000E+00
#rwgt            1          17  -13047059.904069128                3    17364659           0
<weights>
-.11145E+08
-.12677E+08
-.94891E+07
-.15407E+08
-.76032E+07
-.91702E+07
-.13910E+08
-.11171E+08
-.11120E+08
-.11117E+08
-.11146E+08
-.11161E+08
-.11087E+08
-.11143E+08
-.11146E+08
-.11136E+08
-.11127E+08
-.11067E+08
-.11230E+08
-.11241E+08
-.11060E+08
-.11141E+08
-.11133E+08
-.11235E+08
-.11051E+08
-.11079E+08
-.11173E+08
-.11263E+08
-.10942E+08
-.11147E+08
-.11124E+08
-.11137E+08
-.11149E+08
-.11073E+08
-.11238E+08
-.11128E+08
-.11158E+08
-.11077E+08
-.11225E+08
-.11085E+08
-.11193E+08
-.11201E+08
-.11086E+08
-.11149E+08
-.11136E+08
</weights>
</event>
<event>
      7  10001  1.11453E+07  8.94427E-01 -1.00000E+00  6.07649E-01
      -2    -1     0     0     0   501  0.000000000E+00  0.000000000E+00  8.927179345E-02  8.927179345E-02  0.000000000E+00  0.00000E+00  9.000E+00
       3    -1     0     0   501     0  0.000000000E+00  0.000000000E+00 -4.470951343E+01  4.470951343E+01  0.000000000E+00  0.00000E+00  9.000E+00
      23     2     1     2     0     0  1.636177189E-01  3.502484689E-01 -3.344949325E+00  3.521290619E+00  1.030221768E+00  0.00000E+00  9.000E+00
      11     1     3     3     0     0  3.949856894E-01 -2.404996155E-01 -1.273676762E+00  1.355030079E+00  5.110000000E-04  0.00000E+00  9.000E+00
     -11     1     3     3     0     0 -2.313679705E-01  5.907480844E-01 -2.071272563E+00  2.166260541E+00  5.110000000E-04  0.00000E+00  9.000E+00
       3     1     1     2   502     0 -1.872672931E-01 -3.353372697E-01 -4.021385915E+01  4.021569331E+01  0.000000000E+00  0.00000E+00  9.000E+00
      -2     1     1     2     0   502  2.364957422E-02 -1.491119926E-02 -1.061433160E+00  1.061801300E+00  0.000000000E+00  0.00000E+00  9.000E+00
#rwgt            2         115   10293.278831523712                3    17367191           0
<weights>
0.11145E+08
0.11284E+08
0.10856E+08
0.13714E+08
0.86982E+07
0.91702E+07
0.13910E+08
0.11184E+08
0.11106E+08
0.10962E+08
0.11112E+08
0.11259E+08
0.10869E+08
0.11057E+08
0.11061E+08
0.11984E+08
0.99936E+07
0.11368E+08
0.10962E+08
0.11010E+08
0.11287E+08
0.11175E+08
0.11277E+08
0.10832E+08
0.11365E+08
0.10023E+08
0.11498E+08
0.10476E+08
0.12036E+08
0.11095E+08
0.11271E+08
0.11190E+08
0.11122E+08
0.11217E+08
0.11081E+08
0.11258E+08
0.11042E+08
0.10905E+08
0.11393E+08
0.11109E+08
0.11170E+08
0.11229E+08
0.11055E+08
0.11245E+08
0.11041E+08
</weights>
</event>
<event>
      7  10001  1.11453E+07  8.04512E+00 -1.00000E+00  2.06656E-01
       2    -1     0     0   501     0  0.000000000E+00  0.000000000E+00  8.507466484E+02  8.507466484E+02  0.000000000E+00  0.00000E+00  9.000E+00
      -5    -1     0     0     0   501  0.000000000E+00  0.000000000E+00 -3.978050208E-01  3.978050208E-01  0.000000000E+00  0.00000E+00  9.000E+00
      23     2     1     2     0     0 -2.159680214E+00 -9.735064322E-01  4.397745984E+02  4.398356690E+02  6.935877860E+00  0.00000E+00  9.000E+00
      11     1     3     3     0     0  2.378130044E+00 -1.239150282E+00  1.293683126E+02  1.293961024E+02  5.110000000E-04  0.00000E+00  9.000E+00
     -11     1     3     3     0     0 -4.537810258E+00  2.656438501E-01  3.104062858E+02  3.104395667E+02  5.110000000E-04  0.00000E+00  9.000E+00
       2     1     1     2   502     0 -2.397039447E+00  7.603762297E+00  3.608381936E+02  3.609262597E+02  0.000000000E+00  0.00000E+00  9.000E+00
      -5     1     1     2     0   502  4.556719661E+00 -6.630255865E+00  4.973605139E+01  5.038252470E+01  0.000000000E+00  0.00000E+00  9.000E+00
#rwgt            1          24   5659577.0727914777                3    17367708           0
<weights>
0.11145E+08
0.11931E+08
0.10108E+08
0.12882E+08
0.93009E+07
0.10334E+08
0.12123E+08
0.11163E+08
0.11129E+08
0.10802E+08
0.10781E+08
0.10954E+08
0.10988E+08
0.10815E+08
0.10793E+08
0.11229E+08
0.11227E+08
0.11493E+08
0.11542E+08
0.11528E+08
0.11467E+08
0.11539E+08
0.11554E+08
0.11456E+08
0.11331E+08
0.11295E+08
0.11407E+08
0.11468E+08
0.11400E+08
0.11520E+08
0.11552E+08
0.11194E+08
0.11218E+08
0.11135E+08
0.11184E+08
0.11200E+08
0.11111E+08
0.11171E+08
0.11045E+08
0.11176E+08
0.11119E+08
0.11191E+08
0.11098E+08
0.11538E+08
0.10786E+08
</weights>
</event>
<event>
      7  10001  1.11453E+07  1.57111E+00 -1.00000E+00  4.05517E-01
      -2    -1     0     0     0   502  0.000000000E+00  0.000000000E+00  1.683091791E+01  1.683091791E+01  0.000000000E+00  0.00000E+00  9.000E+00
      21    -1     0     0   502   501  0.000000000E+00  0.000000000E+00 -2.482107259E-01  2.482107259E-01  0.000000000E+00  0.00000E+00  9.000E+00
      23     2     1     2     0     0  1.374223670E+00  4.897126365E-01  1.152552593E+01  1.166868634E+01  1.091871673E+00  0.00000E+00  9.000E+00
      11     1     3     3     0     0  1.212287448E+00  5.518989596E-01  1.132700712E+01  1.140505695E+01  5.110000000E-04  0.00000E+00  9.000E+00
     -11     1     3     3     0     0  1.619362222E-01 -6.218632309E-02  1.985188068E-01  2.636293926E-01  5.110000000E-04  0.00000E+00  9.000E+00
      -2     1     1     2     0   511 -7.676379469E-01 -1.131357471E-01  4.301105942E+00  4.370535440E+00  0.000000000E+00  0.00000E+00  9.000E+00
      21     1     1     2   511   501 -6.065857234E-01 -3.765768894E-01  7.560753148E-01  1.039906859E+00  6.409231772E-08  0.00000E+00  9.000E+00
#rwgt            2         101   3358176.3588022827                3    17384253           0
<weights>
0.11145E+08
0.11481E+08
0.10521E+08
0.13954E+08
0.84302E+07
0.91702E+07
0.13910E+08
0.11186E+08
0.11103E+08
0.10832E+08
0.10828E+08
0.10964E+08
0.11016E+08
0.10852E+08
0.10837E+08
0.11227E+08
0.11201E+08
0.11451E+08
0.11478E+08
0.11470E+08
0.11428E+08
0.11485E+08
0.11506E+08
0.11370E+08
0.11336E+08
0.11290E+08
0.11245E+08
0.11422E+08
0.11356E+08
0.11461E+08
0.11497E+08
0.11180E+08
0.11216E+08
0.11138E+08
0.11175E+08
0.11220E+08
0.11089E+08
0.11113E+08
0.11103E+08
0.11162E+08
0.11132E+08
0.11181E+08
0.11108E+08
0.11492E+08
0.10826E+08
</weights>
</event>
<event>
      6  10001 -1.11453E+07  8.94427E-01 -1.00000E+00  2.28975E-01
      -2    -1     0     0     0   502  0.000000000E+00  0.000000000E+00  5.934724906E-03  5.934724906E-03  0.000000000E+00  0.00000E+00  9.000E+00
       2    -1     0     0   501     0  0.000000000E+00  0.000000000E+00 -1.245990685E+02  1.245990685E+02  0.000000000E+00  0.00000E+00  9.000E+00
      23     2     1     2     0     0 -2.169757398E-02  3.772092956E-01 -9.892657617E+01  9.893566476E+01  1.286674891E+00  0.00000E+00  9.000E+00
      11     1     3     3     0     0 -1.094530232E-01  4.695053113E-01 -1.291564660E+01  1.292464091E+01  5.110000000E-04  0.00000E+00  9.000E+00
     -11     1     3     3     0     0  8.775544922E-02 -9.229601570E-02 -8.601092956E+01  8.601102385E+01  5.110000000E-04  0.00000E+00  9.000E+00
      21     1     1     2   501   502  2.169757398E-02 -3.772092956E-01 -2.566655759E+01  2.566933845E+01  3.371747881E-07  0.00000E+00  9.000E+00
#rwgt            1           8  -753802.43337378837                3    17386214           0
<weights>
-.11145E+08
-.12882E+08
-.92653E+07
-.15656E+08
-.74238E+07
-.91702E+07
-.13910E+08
-.11143E+08
-.11147E+08
-.11163E+08
-.11171E+08
-.11147E+08
-.11144E+08
-.11173E+08
-.11172E+08
-.11224E+08
-.10996E+08
-.11123E+08
-.11094E+08
-.11093E+08
-.11123E+08
-.11110E+08
-.11117E+08
-.11220E+08
-.11021E+08
-.11074E+08
-.11174E+08
-.11156E+08
-.11042E+08
-.11119E+08
-.11114E+08
-.11107E+08
-.11172E+08
-.11128E+08
-.11159E+08
-.11138E+08
-.11146E+08
-.11148E+08
-.11148E+08
-.11118E+08
-.11165E+08
-.11185E+08
-.11103E+08
-.11116E+08
-.11170E+08
</weights>
</event>
<event>
      6  10001 -1.11453E+07  8.94427E-01 -1.00000E+00  6.10018E-01
      -3    -1     0     0     0   502  0.000000000E+00  0.000000000E+00  3.386459001E+01  3.386459001E+01  0.000000000E+00  0.00000E+00  9.000E+00
       3    -1     0     0   501     0  0.000000000E+00  0.000000000E+00 -2.004083637E-02  2.004083637E-02  0.000000000E+00  0.00000E+00  9.000E+00
      23     2     1     2     0     0  5.060164183E-01 -7.134867081E-03  2.424311108E+01  2.426986527E+01  1.020696879E+00  0.00000E+00  9.000E+00
      11     1     3     3     0     0  5.082971132E-01  3.697414137E-01  2.005028251E+01  2.006013219E+01  5.110000000E-04  0.00000E+00  9.000E+00
     -11     1     3     3     0     0 -2.280694893E-03 -3.768762808E-01  4.192828568E+00  4.209733079E+00  5.110000000E-04  0.00000E+00  9.000E+00
      21     1     1     2   501   502 -5.060164183E-01  7.134867081E-03  9.601438101E+00  9.614765578E+00  1.192092896E-07  0.00000E+00  9.000E+00
#rwgt            1           6  -138534.36279138882                3    17386941           0
<weights>
-.11145E+08
-.13478E+08
-.87445E+07
-.16398E+08
-.70070E+07
-.91603E+07
-.13909E+08
-.11167E+08
-.11124E+08
-.10811E+08
-.10796E+08
-.10962E+08
-.10991E+08
-.10826E+08
-.10807E+08
-.11220E+08
-.11228E+08
-.11455E+08
-.11606E+08
-.11569E+08
-.11434E+08
-.11521E+08
-.11543E+08
-.11602E+08
-.11292E+08
-.11245E+08
-.12194E+08
-.11436E+08
-.11418E+08
-.11501E+08
-.11537E+08
-.11192E+08
-.11215E+08
-.11137E+08
-.11180E+08
-.11205E+08
-.11106E+08
-.11157E+08
-.11059E+08
-.11173E+08
-.11122E+08
-.11189E+08
-.11099E+08
-.11524E+08
-.10798E+08
</weights>
</event>
<event>
      6  10001 -1.11453E+07  8.94427E-01 -1.00000E+00  5.86279E-01
      21    -1     0     0   502   501  0.000000000E+00  0.000000000E+00  7.054426695E-03  7.054426695E-03  0.000000000E+00  0.00000E+00  9.000E+00
       1    -1     0     0   501     0  0.000000000E+00  0.000000000E+00 -3.858808103E+02  3.858808103E+02  0.000000000E+00  0.00000E+00  9.000E+00
      23     2     1     2     0     0  2.523059087E-01 -3.110835729E-01 -3.622050739E+02  3.622157939E+02  2.757780714E+00  0.00000E+00  9.000E+00
      11     1     3     3     0     0 -7.547132026E-01 -2.849901836E-01 -3.549296730E+01  3.550213429E+01  5.110000000E-04  0.00000E+00  9.000E+00
     -11     1     3     3     0     0  1.007019111E+00 -2.609338927E-02 -3.267121066E+02  3.267136596E+02  5.110000000E-04  0.00000E+00  9.000E+00
       1     1     1     2   502     0 -2.523059087E-01  3.110835729E-01 -2.366868191E+01  2.367207077E+01  0.000000000E+00  0.00000E+00  9.000E+00
#rwgt            1          16  -1966276.1399376125                3    17387208           0
<weights>
-.11145E+08
-.11470E+08
-.10688E+08
-.13940E+08
-.85637E+07
-.91702E+07
-.13910E+08
-.11278E+08
-.11021E+08
-.11111E+08
-.11304E+08
-.11808E+08
-.10457E+08
-.11176E+08
-.11190E+08
-.10200E+08
-.12281E+08
-.10138E+08
-.12376E+08
-.12593E+08
-.99957E+07
-.11196E+08
-.10994E+08
-.11577E+08
-.10631E+08
-.10455E+08
-.11551E+08
-.12163E+08
-.98804E+07
-.11297E+08
-.10975E+08
-.11007E+08
-.11274E+08
-.10128E+08
-.12298E+08
-.11172E+08
-.11117E+08
-.11162E+08
-.11143E+08
-.11337E+08
-.10968E+08
-.11177E+08
-.11110E+08
-.11098E+08
-.11192E+08
</weights>
</event>
<event>
      6  10001 -1.11453E+07  8.94427E-01 -1.00000E+00  5.98227E-01
      21    -1     0     0   502   501  0.000000000E+00  0.000000000E+00  4.319538426E-01  4.319538426E-01  0.000000000E+00  0.00000E+00  9.000E+00
       4    -1     0     0   501     0  0.000000000E+00  0.000000000E+00 -9.082212086E+00  9.082212086E+00  0.000000000E+00  0.00000E+00  9.000E+00
      23     2     1     2     0     0 -4.606757652E-01  1.635332679E-01 -8.400199453E+00  8.965080608E+00  3.093598903E+00  0.00000E+00  9.000E+00
      11     1     3     3     0     0 -1.455192497E+00  1.019543522E+00 -4.082651525E+00  4.452538369E+00  5.110000000E-04  0.00000E+00  9.000E+00
     -11     1     3     3     0     0  9.945167314E-01 -8.560102545E-01 -4.317547928E+00  4.512542239E+00  5.110000000E-04  0.00000E+00  9.000E+00
       4     1     1     2   502     0  4.606757652E-01 -1.635332679E-01 -2.500587906E-01  5.490853205E-01  0.000000000E+00  0.00000E+00  9.000E+00
#rwgt            1          19  -250800.89468835929                3    17388423           0
<weights>
-.11145E+08
-.13157E+07
-.19595E+08
-.15719E+08
-.75793E+07
-.14161E+06
-.27770E+08
-.11166E+08
-.11131E+08
-.11376E+08
-.11507E+08
-.11210E+08
-.11355E+08
-.11463E+08
-.11501E+08
-.11132E+08
-.10868E+08
-.10764E+08
-.10716E+08
-.10706E+08
-.10798E+08
-.10707E+08
-.10704E+08
-.10864E+08
-.10948E+08
-.10833E+08
-.11212E+08
-.10686E+08
-.10890E+08
-.10659E+08
-.10705E+08
-.11012E+08
-.11150E+08
-.11189E+08
-.11064E+08
-.11160E+08
-.11124E+08
-.10705E+08
-.11768E+08
-.10971E+08
-.11298E+08
-.11108E+08
-.11185E+08
-.10772E+08
-.11462E+08
</weights>
</event>
<event>
      6  10001 -1.11453E+07  8.94427E-01 -1.00000E+00  2.96699E-01
       2    -1     0     0   501     0  0.000000000E+00  0.000000000E+00  6.910661927E+02  6.910661927E+02  0.000000000E+00  0.00000E+00  9.000E+00
      21    -1     0     0   502   501  0.000000000E+00  0.000000000E+00 -2.146051019E-02  2.146051019E-02  0.000000000E+00  0.00000E+00  9.000E+00
      23     2     1     2     0     0  1.266180854E+00  4.924443312E-01  2.004926971E+02  2.005337369E+02  3.822605575E+00  0.00000E+00  9.000E+00
      11     1     3     3     0     0  1.622415919E+00 -1.390448946E+00  1.013378720E+02  1.013603960E+02  5.110000000E-04  0.00000E+00  9.000E+00
     -11     1     3     3     0     0 -3.562350649E-01  1.882893277E+00  9.915482514E+01  9.917334087E+01  5.110000000E-04  0.00000E+00  9.000E+00
       2     1     1     2   502     0 -1.266180854E+00 -4.924443312E-01  4.905520351E+02  4.905539163E+02  0.000000000E+00  0.00000E+00  9.000E+00
#rwgt            1          24  -7997202.0979992356                3    17400113           0
<weights>
-.11145E+08
-.11960E+08
-.10063E+08
-.14541E+08
-.80633E+07
-.91674E+07
-.13909E+08
-.11171E+08
-.11120E+08
-.10823E+08
-.10813E+08
-.10962E+08
-.11006E+08
-.10841E+08
-.10824E+08
-.11226E+08
-.11211E+08
-.11462E+08
-.11504E+08
-.11492E+08
-.11439E+08
-.11502E+08
-.11521E+08
-.11413E+08
-.11328E+08
-.11286E+08
-.11354E+08
-.11435E+08
-.11372E+08
-.11479E+08
-.11514E+08
-.11184E+08
-.11217E+08
-.11138E+08
-.11178E+08
-.11208E+08
-.11102E+08
-.11132E+08
-.11083E+08
-.11166E+08
-.11128E+08
-.11185E+08
-.11103E+08
-.11506E+08
-.10814E+08
</weights>
</event>
<event>
      6  10001 -1.11453E+07  8.94427E-01 -1.00000E+00  6.01995E-01
      21    -1     0     0   502   501  0.000000000E+00  0.000000000E+00  7.142359860E-01  7.142359860E-01  0.000000000E+00  0.00000E+00  9.000E+00
       4    -1     0     0   501     0  0.000000000E+00  0.000000000E+00 -4.447453757E+00  4.447453757E+00  0.000000000E+00  0.00000E+00  9.000E+00
      23     2     1     2     0     0  3.085464368E-01  1.127166300E-01 -3.789223565E+00  4.828459205E+00  2.974541498E+00  0.00000E+00  9.000E+00
      11     1     3     3     0     0  1.385532655E+00  5.819169282E-01 -3.152230662E+00  3.492117761E+00  5.110000000E-04  0.00000E+00  9.000E+00
     -11     1     3     3     0     0 -1.076986218E+00 -4.692002981E-01 -6.369929028E-01  1.336341444E+00  5.110000000E-04  0.00000E+00  9.000E+00
       4     1     1     2   502     0 -3.085464368E-01 -1.127166300E-01  5.600579430E-02  3.332305379E-01  0.000000000E+00  0.00000E+00  9.000E+00
#rwgt            1          19  -837542.22104095784                3    17403189           0
<weights>
-.11155E+08
-.95155E+07
-.11890E+08
-.15744E+08
-.72702E+07
-.65245E+07
-.17798E+08
-.11223E+08
-.11085E+08
-.10933E+08
-.10977E+08
-.11005E+08
-.11109E+08
-.10972E+08
-.10981E+08
-.11213E+08
-.11150E+08
-.11323E+08
-.11333E+08
-.11329E+08
-.11311E+08
-.11328E+08
-.11370E+08
-.11208E+08
-.11331E+08
-.11280E+08
-.11090E+08
-.11294E+08
-.11235E+08
-.11288E+08
-.11340E+08
-.11140E+08
-.11225E+08
-.11160E+08
-.11157E+08
-.11266E+08
-.11056E+08
-.10948E+08
-.11303E+08
-.11125E+08
-.11182E+08
-.11163E+08
-.11146E+08
-.11360E+08
-.10958E+08
</weights>
</event>
<event>
      6  10001 -1.11453E+07  8.94427E-01 -1.00000E+00  2.49954E-01
       2    -1     0     0   501     0  0.000000000E+00  0.000000000E+00  4.372491891E+01  4.372491891E+01  0.000000000E+00  0.00000E+00  9.000E+00
      -2    -1     0     0     0   502  0.000000000E+00  0.000000000E+00 -2.362530809E-02  2.362530809E-02  0.000000000E+00  0.00000E+00  9.000E+00
      23     2     1     2     0     0  2.642006640E-02  2.848330676E-01  4.135644911E+01  4.138631569E+01  1.545773612E+00  0.00000E+00  9.000E+00
      11     1     3     3     0     0  2.441053721E-01 -4.108282875E-01  3.123390281E+01  3.123755836E+01  5.110000000E-04  0.00000E+00  9.000E+00
     -11     1     3     3     0     0 -2.176853057E-01  6.956613552E-01  1.012254630E+01  1.014875734E+01  5.110000000E-04  0.00000E+00  9.000E+00
      21     1     1     2   501   502 -2.642006640E-02 -2.848330676E-01  2.344844495E+00  2.362228525E+00  0.000000000E+00  0.00000E+00  9.000E+00
#rwgt            1          23  -2372286.5803258349                3    17411528           0
<weights>
-.11145E+08
-.12967E+08
-.92050E+07
-.15775E+08
-.73760E+07
-.91612E+07
-.13909E+08
-.11118E+08
-.11195E+08
-.10815E+08
-.10795E+08
-.10962E+08
-.10991E+08
-.10829E+08
-.10807E+08
-.11219E+08
-.11232E+08
-.11481E+08
-.11520E+08
-.11506E+08
-.11457E+08
-.11523E+08
-.11536E+08
-.11445E+08
-.11318E+08
-.11298E+08
-.11366E+08
-.11458E+08
-.11379E+08
-.11504E+08
-.11532E+08
-.11184E+08
-.11224E+08
-.11136E+08
-.11182E+08
-.11171E+08
-.11144E+08
-.11157E+08
-.11060E+08
-.11171E+08
-.11123E+08
-.11193E+08
-.11096E+08
-.11522E+08
-.10800E+08
</weights>
</event>
<event>
      6  10001 -1.11453E+07  8.94427E-01 -1.00000E+00  4.67656E-01
      21    -1     0     0   502   501  0.000000000E+00  0.000000000E+00  1.803447640E-02  1.803447640E-02  0.000000000E+00  0.00000E+00  9.000E+00
      -2    -1     0     0     0   502  0.000000000E+00  0.000000000E+00 -1.462372731E+02  1.462372731E+02  0.000000000E+00  0.00000E+00  9.000E+00
      23     2     1     2     0     0  3.867033901E-01 -7.300821538E-01 -9.772280043E+01  9.775183268E+01  2.234392345E+00  0.00000E+00  9.000E+00
      11     1     3     3     0     0  1.251260706E+00 -6.286229347E-01 -4.481453232E+01  4.483640404E+01  5.110000000E-04  0.00000E+00  9.000E+00
     -11     1     3     3     0     0 -8.645573162E-01 -1.014592191E-01 -5.290826812E+01  5.291542865E+01  5.110000000E-04  0.00000E+00  9.000E+00
      -2     1     1     2     0   501 -3.867033901E-01  7.300821538E-01 -4.849643822E+01  4.850347492E+01  0.000000000E+00  0.00000E+00  9.000E+00
#rwgt            1          14  -2467738.2016351135                3    17414708           0
<weights>
-.11145E+08
-.11926E+08
-.10253E+08
-.14494E+08
-.82151E+07
-.91702E+07
-.13910E+08
-.11117E+08
-.11170E+08
-.11248E+08
-.11253E+08
-.11118E+08
-.11207E+08
-.11269E+08
-.11264E+08
-.11043E+08
-.11190E+08
-.11086E+08
-.10929E+08
-.10904E+08
-.11108E+08
-.11013E+08
-.10995E+08
-.11130E+08
-.11005E+08
-.11055E+08
-.11154E+08
-.11030E+08
-.10971E+08
-.11022E+08
-.11023E+08
-.11181E+08
-.11066E+08
-.11299E+08
-.10993E+08
-.11098E+08
-.11168E+08
-.11190E+08
-.11117E+08
-.11104E+08
-.11167E+08
-.11290E+08
-.10990E+08
-.11013E+08
-.11261E+08
</weights>
</event>
<event>
      7  10001  1.11453E+07  1.45016E+00 -1.00000E+00  4.37185E-01
       1    -1     0     0   501     0  0.000000000E+00  0.000000000E+00  2.162498504E-01  2.162498504E-01  0.000000000E+00  0.00000E+00  9.000E+00
      -1    -1     0     0     0   502  0.000000000E+00  0.000000000E+00 -6.708145693E+00  6.708145693E+00  0.000000000E+00  0.00000E+00  9.000E+00
      23     2     1     2     0     0 -1.438403631E-01 -5.296485996E-01 -2.271581176E+00  2.552996681E+00  1.027858610E+00  0.00000E+00  9.000E+00
      11     1     3     3     0     0 -1.817513287E-01 -3.054814558E-01 -9.960353868E-02  3.691525313E-01  5.110000000E-04  0.00000E+00  9.000E+00
     -11     1     3     3     0     0  3.791096559E-02 -2.241671438E-01 -2.171977637E+00  2.183844149E+00  5.110000000E-04  0.00000E+00  9.000E+00
      21     1     1     2   501   511 -1.382172994E-01  1.681167231E-01 -1.259902485E-01  2.514772299E-01  3.725290298E-09  0.00000E+00  9.000E+00
      21     1     1     2   511   502  2.820576625E-01  3.615318765E-01 -4.094324418E+00  4.119921633E+00  5.960464478E-08  0.00000E+00  9.000E+00
#rwgt            1          21   40482.605883419536                3    17417720           0
<weights>
0.11145E+08
0.13005E+08
0.96507E+07
0.85449E+07
0.11913E+08
0.13792E+08
0.68154E+07
0.11013E+08
0.11269E+08
0.10768E+08
0.10709E+08
0.10975E+08
0.10873E+08
0.10761E+08
0.10726E+08
0.11100E+08
0.11463E+08
0.11606E+08
0.11540E+08
0.11511E+08
0.11590E+08
0.11616E+08
0.11627E+08
0.11501E+08
0.11332E+08
0.11542E+08
0.10976E+08
0.11623E+08
0.11271E+08
0.11612E+08
0.11604E+08
0.11122E+08
0.11311E+08
0.11191E+08
0.11140E+08
0.10778E+08
0.11545E+08
0.11185E+08
0.10954E+08
0.11195E+08
0.11092E+08
0.11294E+08
0.10987E+08
0.11597E+08
0.10736E+08
</weights>
</event>
<event>
      6  10001 -1.11453E+07  8.94427E-01 -1.00000E+00  4.09792E-01
      -4    -1     0     0     0   502  0.000000000E+00  0.000000000E+00  1.666427791E+02  1.666427791E+02  0.000000000E+00  0.00000E+00  9.000E+00
      21    -1     0     0   502   501  0.000000000E+00  0.000000000E+00 -8.714251056E-03  8.714251056E-03  0.000000000E+00  0.00000E+00  9.000E+00
      23     2     1     2     0     0  4.775034630E-01 -2.485326041E-01  1.545128611E+02  1.545183422E+02  1.184919423E+00  0.00000E+00  9.000E+00
      11     1     3     3     0     0  1.835097932E-01  4.685194683E-01  4.717569733E+01  4.717838069E+01  5.110000000E-04  0.00000E+00  9.000E+00
     -11     1     3     3     0     0  2.939936698E-01 -7.170520723E-01  1.073371638E+02  1.073399615E+02  5.110000000E-04  0.00000E+00  9.000E+00
      -4     1     1     2     0   501 -4.775034630E-01  2.485326041E-01  1.212120372E+01  1.213315118E+01  0.000000000E+00  0.00000E+00  9.000E+00
#rwgt            1           3  -1213659.1720177867                3    17420649           0
<weights>
-.11145E+08
-.12404E+08
-.96575E+07
-.15064E+08
-.77376E+07
-.91779E+07
-.13911E+08
-.11175E+08
-.11116E+08
-.10830E+08
-.10824E+08
-.10965E+08
-.11012E+08
-.10849E+08
-.10834E+08
-.11225E+08
-.11205E+08
-.11452E+08
-.11491E+08
-.11480E+08
-.11429E+08
-.11489E+08
-.11510E+08
-.11395E+08
-.11327E+08
-.11283E+08
-.11325E+08
-.11424E+08
-.11363E+08
-.11466E+08
-.11501E+08
-.11180E+08
-.11216E+08
-.11139E+08
-.11176E+08
-.11211E+08
-.11098E+08
-.11119E+08
-.11096E+08
-.11163E+08
-.11130E+08
-.11183E+08
-.11105E+08
-.11495E+08
-.10823E+08
</weights>
</event>
<event>
      6  10001 -1.11453E+07  8.94427E-01 -1.00000E+00  3.78567E-01
      21    -1     0     0   502   501  0.000000000E+00  0.000000000E+00  4.464615036E-03  4.464615036E-03  0.000000000E+00  0.00000E+00  9.000E+00
       2    -1     0     0   501     0  0.000000000E+00  0.000000000E+00 -4.907818279E+02  4.907818279E+02  0.000000000E+00  0.00000E+00  9.000E+00
      23     2     1     2     0     0  1.101621089E+00 -1.441664978E-01 -3.161902152E+02  3.161956094E+02  1.475420164E+00  0.00000E+00  9.000E+00
      11     1     3     3     0     0  1.135858949E+00  6.093124544E-02 -1.224641663E+02  1.224694489E+02  5.110000000E-04  0.00000E+00  9.000E+00
     -11     1     3     3     0     0 -3.423785975E-02 -2.050977432E-01 -1.937260489E+02  1.937261605E+02  5.110000000E-04  0.00000E+00  9.000E+00
       2     1     1     2   502     0 -1.101621089E+00  1.441664978E-01 -1.745871482E+02  1.745906832E+02  0.000000000E+00  0.00000E+00  9.000E+00
#rwgt            1          17  -10541286.358866457                3    17421539           0
<weights>
-.11145E+08
-.12018E+08
-.10084E+08
-.14607E+08
-.80797E+07
-.91702E+07
-.13910E+08
-.11130E+08
-.11160E+08
-.11165E+08
-.11150E+08
-.10982E+08
-.11331E+08
-.11156E+08
-.11152E+08
-.11274E+08
-.10950E+08
-.11477E+08
-.10674E+08
-.10608E+08
-.11517E+08
-.11109E+08
-.11172E+08
-.11038E+08
-.11214E+08
-.11354E+08
-.11014E+08
-.10738E+08
-.11593E+08
-.11066E+08
-.11190E+08
-.11027E+08
-.11261E+08
-.11527E+08
-.10678E+08
-.11095E+08
-.11191E+08
-.11146E+08
-.11151E+08
-.11257E+08
-.11045E+08
-.11133E+08
-.11158E+08
-.11133E+08
-.11158E+08
</weights>
</event>
<event>
      6  10001  1.11453E+07  8.94427E-01 -1.00000E+00  6.05338E-01
      -2    -1     0     0     0   502  0.000000000E+00  0.000000000E+00  1.174184099E-01  1.174184099E-01  0.000000000E+00  0.00000E+00  9.000E+00
      21    -1     0     0   502   501  0.000000000E+00  0.000000000E+00 -2.884696551E+01  2.884696551E+01  0.000000000E+00  0.00000E+00  9.000E+00
      23     2     1     2     0     0  5.495832228E-02  2.956362712E-01 -2.786341859E+00  3.019436061E+00  1.123775756E+00  0.00000E+00  9.000E+00
      11     1     3     3     0     0 -4.884469849E-01 -3.695941667E-03 -1.696120019E+00  1.765054531E+00  5.110000000E-04  0.00000E+00  9.000E+00
     -11     1     3     3     0     0  5.434053071E-01  2.993322128E-01 -1.090221840E+00  1.254381530E+00  5.110000000E-04  0.00000E+00  9.000E+00
      -2     1     1     2     0   501 -5.495832228E-02 -2.956362712E-01 -2.594320524E+01  2.594494786E+01  0.000000000E+00  0.00000E+00  9.000E+00
#rwgt            1           7   1945792.4835717850                3    17421865           0
<weights>
0.11145E+08
0.12721E+08
0.94045E+07
0.12738E+08
0.93672E+07
0.11035E+08
0.11047E+08
0.11316E+08
0.10974E+08
0.10577E+08
0.10691E+08
0.10843E+08
0.10939E+08
0.10648E+08
0.10679E+08
0.11262E+08
0.11220E+08
0.11584E+08
0.11683E+08
0.11678E+08
0.11550E+08
0.11617E+08
0.11749E+08
0.11288E+08
0.11642E+08
0.11521E+08
0.10977E+08
0.11555E+08
0.11365E+08
0.11532E+08
0.11648E+08
0.11117E+08
0.11324E+08
0.11160E+08
0.11152E+08
0.11396E+08
0.10926E+08
0.10715E+08
0.11417E+08
0.11151E+08
0.11140E+08
0.11186E+08
0.11104E+08
0.11689E+08
0.10635E+08
</weights>
</event>
<event>
      7  10001  1.11453E+07  8.94427E-01 -1.00000E+00  6.07649E-01
      21    -1     0     0   511   502  0.000000000E+00  0.000000000E+00  5.691876424E-02  5.691876424E-02  0.000000000E+00  0.00000E+00  9.000E+00
       2    -1     0     0   501     0  0.000000000E+00  0.000000000E+00 -6.636079454E+02  6.636079454E+02  0.000000000E+00  0.00000E+00  9.000E+00
      23     2     1     2     0     0  9.304942024E-01 -3.842067140E-02 -5.541295936E+02  5.541312874E+02  1.004949375E+00  0.00000E+00  9.000E+00
      11     1     3     3     0     0  1.647199887E-01 -4.263266241E-01 -1.250599213E+02  1.250607564E+02  5.110000000E-04  0.00000E+00  9.000E+00
     -11     1     3     3     0     0  7.657742137E-01  3.879059527E-01 -4.290696723E+02  4.290705310E+02  5.110000000E-04  0.00000E+00  9.000E+00
      21     1     1     2   501   502 -1.272305855E+00 -1.827308676E-01 -7.364292209E+00  7.475623887E+00  1.082772143E-06  0.00000E+00  9.000E+00
       2     1     1     2   511     0  3.418116525E-01  2.211515390E-01 -1.020571409E+02  1.020579529E+02  0.000000000E+00  0.00000E+00  9.000E+00
#rwgt            2         190   41244719.591930993                3    17479034           0
<weights>
0.11145E+08
0.10401E+08
0.11849E+08
0.12641E+08
0.94943E+07
0.91702E+07
0.13910E+08
0.11133E+08
0.11157E+08
0.11163E+08
0.11143E+08
0.10939E+08
0.11375E+08
0.11153E+08
0.11148E+08
0.11114E+08
0.11180E+08
0.11554E+08
0.10586E+08
0.10500E+08
0.11608E+08
0.11115E+08
0.11171E+08
0.10969E+08
0.11291E+08
0.11492E+08
0.10935E+08
0.10617E+08
0.11755E+08
0.11053E+08
0.11206E+08
0.11078E+08
0.11210E+08
0.11670E+08
0.10519E+08
0.11069E+08
0.11216E+08
0.11129E+08
0.11172E+08
0.11299E+08
0.11009E+08
0.11123E+08
0.11169E+08
0.11137E+08
0.11154E+08
</weights>
</event>
<event>
      6  10001 -1.11453E+07  8.94427E-01 -1.00000E+00  5.43107E-01
      21    -1     0     0   502   501  0.000000000E+00  0.000000000E+00  6.842256425E-03  6.842256425E-03  0.000000000E+00  0.00000E+00  9.000E+00
       2    -1     0     0   501     0  0.000000000E+00  0.000000000E+00 -1.297153097E+02  1.297153097E+02  0.000000000E+00  0.00000E+00  9.000E+00
      23     2     1     2     0     0 -4.590572056E-01 -1.666021878E-01 -1.135547139E+02  1.135610183E+02  1.092393014E+00  0.00000E+00  9.000E+00
      11     1     3     3     0     0 -4.081000011E-02 -5.743398645E-01 -7.034691437E+01  7.034927074E+01  5.110000000E-04  0.00000E+00  9.000E+00
     -11     1     3     3     0     0 -4.182472055E-01  4.077376767E-01 -4.320779957E+01  4.321174753E+01  5.110000000E-04  0.00000E+00  9.000E+00
       2     1     1     2   502     0  4.590572056E-01  1.666021878E-01 -1.615375347E+01  1.616113365E+01  0.000000000E+00  0.00000E+00  9.000E+00
#rwgt            1          17  -7448058.8173661139                3    17479361           0
<weights>
-.11145E+08
-.12321E+08
-.98251E+07
-.14975E+08
-.78724E+07
-.91702E+07
-.13910E+08
-.11141E+08
-.11148E+08
-.11164E+08
-.11172E+08
-.11145E+08
-.11147E+08
-.11173E+08
-.11172E+08
-.11230E+08
-.10988E+08
-.11129E+08
-.11086E+08
-.11084E+08
-.11128E+08
-.11109E+08
-.11118E+08
-.11218E+08
-.11021E+08
-.11076E+08
-.11173E+08
-.11149E+08
-.11050E+08
-.11117E+08
-.11115E+08
-.11105E+08
-.11174E+08
-.11133E+08
-.11153E+08
-.11139E+08
-.11146E+08
-.11151E+08
-.11144E+08
-.11120E+08
-.11163E+08
-.11184E+08
-.11104E+08
-.11116E+08
-.11171E+08
</weights>
</event>
<event>
      6  10001 -1.11453E+07  8.94427E-01 -1.00000E+00  5.74212E-01
      -4    -1     0     0     0   502  0.000000000E+00  0.000000000E+00  1.968313692E-02  1.968313692E-02  0.000000000E+00  0.00000E+00  9.000E+00
      21    -1     0     0   502   501  0.000000000E+00  0.000000000E+00 -6.099445411E+01  6.099445411E+01  0.000000000E+00  0.00000E+00  9.000E+00
      23     2     1     2     0     0 -1.101212424E-01  5.022209938E-01 -3.084356821E+01  3.087854812E+01  1.376474086E+00  0.00000E+00  9.000E+00
      11     1     3     3     0     0 -4.350062653E-01 -3.072197427E-01 -7.608613374E+00  7.627228341E+00  5.110000000E-04  0.00000E+00  9.000E+00
     -11     1     3     3     0     0  3.248850228E-01  8.094407366E-01 -2.323495484E+01  2.325131977E+01  5.110000000E-04  0.00000E+00  9.000E+00
      -4     1     1     2     0   501  1.101212424E-01 -5.022209938E-01 -3.013120276E+01  3.013558913E+01  0.000000000E+00  0.00000E+00  9.000E+00
#rwgt            1           3  -653295.59366147977                3    17480900           0
<weights>
-.11145E+08
-.12510E+08
-.95269E+07
-.15204E+08
-.76334E+07
-.91702E+07
-.13910E+08
-.11202E+08
-.11089E+08
-.11039E+08
-.11103E+08
-.11034E+08
-.11188E+08
-.11098E+08
-.11108E+08
-.11175E+08
-.11085E+08
-.11176E+08
-.11150E+08
-.11144E+08
-.11178E+08
-.11165E+08
-.11171E+08
-.11117E+08
-.11217E+08
-.11199E+08
-.11090E+08
-.11155E+08
-.11116E+08
-.11123E+08
-.11168E+08
-.11099E+08
-.11201E+08
-.11158E+08
-.11129E+08
-.11253E+08
-.11047E+08
-.10882E+08
-.11441E+08
-.11072E+08
-.11212E+08
-.11126E+08
-.11166E+08
-.11202E+08
-.11079E+08
</weights>
</event>
<event>
      7  10001  1.11453E+07  8.94427E-01 -1.00000E+00  6.07649E-01
      -2    -1     0     0     0   502  0.000000000E+00  0.000000000E+00  3.380533286E+01  3.380533286E+01  0.000000000E+00  0.00000E+00  9.000E+00
      21    -1     0     0   501   511  0.000000000E+00  0.000000000E+00 -1.280267904E-01  1.280267904E-01  0.000000000E+00  0.00000E+00  9.000E+00
      23     2     1     2     0     0  8.049350018E-02 -1.727780425E-01  2.655008646E+01  2.657779602E+01  1.198256695E+00  0.00000E+00  9.000E+00
      11     1     3     3     0     0  6.486145379E-02 -1.363327263E-01  3.979069667E-01  4.255864609E-01  5.110000000E-04  0.00000E+00  9.000E+00
     -11     1     3     3     0     0  1.563204639E-02 -3.644531621E-02  2.615217949E+01  2.615220956E+01  5.110000000E-04  0.00000E+00  9.000E+00
      21     1     1     2   501   502 -5.408962724E-01  4.633554583E-01  1.143770535E+00  1.347396784E+00  6.143906155E-08  0.00000E+00  9.000E+00
      -2     1     1     2     0   511  4.604027722E-01 -2.905774159E-01  5.983449075E+00  6.008166840E+00  0.000000000E+00  0.00000E+00  9.000E+00
#rwgt            2         102   3803826.1871092613                3    17484776           0
<weights>
0.11145E+08
0.11420E+08
0.10587E+08
0.13879E+08
0.84825E+07
0.91702E+07
0.13910E+08
0.11180E+08
0.11110E+08
0.10825E+08
0.10817E+08
0.10962E+08
0.11010E+08
0.10844E+08
0.10828E+08
0.11227E+08
0.11207E+08
0.11460E+08
0.11493E+08
0.11484E+08
0.11437E+08
0.11497E+08
0.11517E+08
0.11391E+08
0.11334E+08
0.11290E+08
0.11287E+08
0.11432E+08
0.11366E+08
0.11474E+08
0.11509E+08
0.11183E+08
0.11216E+08
0.11138E+08
0.11177E+08
0.11215E+08
0.11094E+08
0.11126E+08
0.11090E+08
0.11165E+08
0.11129E+08
0.11184E+08
0.11105E+08
0.11502E+08
0.10817E+08
</weights>
</event>
<event>
      7  10001  1.11453E+07  1.93973E+00 -1.00000E+00  3.59749E-01
      -5    -1     0     0     0   502  0.000000000E+00  0.000000000E+00  9.234161021E-02  9.234161021E-02  0.000000000E+00  0.00000E+00  9.000E+00
       2    -1     0     0   502     0  0.000000000E+00  0.000000000E+00 -2.590252791E+02  2.590252791E+02  0.000000000E+00  0.00000E+00  9.000E+00
      23     2     1     2     0     0 -1.110136370E+00  1.002112809E+00 -9.097405239E+01  9.099645266E+01  1.356302674E+00  0.00000E+00  9.000E+00
      11     1     3     3     0     0  5.425881256E-02  6.879137914E-01 -4.967983817E+01  4.968463032E+01  5.110000000E-04  0.00000E+00  9.000E+00
     -11     1     3     3     0     0 -1.164395183E+00  3.141990178E-01 -4.129421422E+01  4.131182234E+01  5.110000000E-04  0.00000E+00  9.000E+00
      -5     1     1     2     0   501  1.686646538E+00 -2.854187698E+00 -3.708108491E+01  3.722899438E+01  0.000000000E+00  0.00000E+00  9.000E+00
       2     1     1     2   501     0 -5.765101676E-01  1.852074889E+00 -1.308778002E+02  1.308921737E+02  0.000000000E+00  0.00000E+00  9.000E+00
#rwgt            2          17   270568.16707460105                3    17486053           0
<weights>
0.11145E+08
0.11376E+08
0.10521E+08
0.13826E+08
0.84296E+07
0.91702E+07
0.13910E+08
0.11127E+08
0.11162E+08
0.11172E+08
0.11164E+08
0.11069E+08
0.11239E+08
0.11167E+08
0.11165E+08
0.11328E+08
0.10864E+08
0.11301E+08
0.10877E+08
0.10846E+08
0.11317E+08
0.11103E+08
0.11150E+08
0.11147E+08
0.11092E+08
0.11178E+08
0.11116E+08
0.10955E+08
0.11304E+08
0.11093E+08
0.11152E+08
0.11041E+08
0.11242E+08
0.11300E+08
0.10942E+08
0.11131E+08
0.11156E+08
0.11169E+08
0.11122E+08
0.11186E+08
0.11106E+08
0.11156E+08
0.11133E+08
0.11121E+08
0.11169E+08
</weights>
</event>
<event>
      6  10001 -1.11453E+07  8.94427E-01 -1.00000E+00  1.99952E-01
       2    -1     0     0   501     0  0.000000000E+00  0.000000000E+00  4.762202522E+02  4.762202522E+02  0.000000000E+00  0.00000E+00  9.000E+00
      21    -1     0     0   502   501  0.000000000E+00  0.000000000E+00 -2.003276743E-03  2.003276743E-03  0.000000000E+00  0.00000E+00  9.000E+00
      23     2     1     2     0     0 -1.466054994E-01 -3.927892245E-01  3.153901443E+02  3.153936044E+02  1.416610869E+00  0.00000E+00  9.000E+00
      11     1     3     3     0     0 -1.446690559E-01  3.692408212E-01  2.219039175E+02  2.219042718E+02  5.110000000E-04  0.00000E+00  9.000E+00
     -11     1     3     3     0     0 -1.936443454E-03 -7.620300457E-01  9.348622682E+01  9.348933254E+01  5.110000000E-04  0.00000E+00  9.000E+00
       2     1     1     2   502     0  1.466054994E-01  3.927892245E-01  1.608281046E+02  1.608286511E+02  0.000000000E+00  0.00000E+00  9.000E+00
#rwgt            1          24  -38927498.283679269                3    17487254           0
<weights>
-.11145E+08
-.11618E+08
-.10544E+08
-.14130E+08
-.84488E+07
-.91638E+07
-.13909E+08
-.11184E+08
-.11106E+08
-.10846E+08
-.10847E+08
-.10970E+08
-.11026E+08
-.10867E+08
-.10856E+08
-.11223E+08
-.11193E+08
-.11431E+08
-.11462E+08
-.11453E+08
-.11409E+08
-.11461E+08
-.11486E+08
-.11358E+08
-.11328E+08
-.11280E+08
-.11268E+08
-.11401E+08
-.11341E+08
-.11436E+08
-.11474E+08
-.11173E+08
-.11216E+08
-.11140E+08
-.11171E+08
-.11219E+08
-.11089E+08
-.11090E+08
-.11125E+08
-.11156E+08
-.11137E+08
-.11179E+08
-.11110E+08
-.11472E+08
-.10843E+08
</weights>
</event>
<event>
      7  10001  1.11453E+07  1.60434E+00 -1.00000E+00  4.00442E-01
      21    -1     0     0   502   501  0.000000000E+00  0.000000000E+00  6.051287981E+00  6.051287981E+00  0.000000000E+00  0.00000E+00  9.000E+00
      -2    -1     0     0     0   502  0.000000000E+00  0.000000000E+00 -2.455750656E-01  2.455750656E-01  0.000000000E+00  0.00000E+00  9.000E+00
      23     2     1     2     0     0  3.478973716E-01  8.021693317E-02  1.763174582E+00  2.178230999E+00  1.228184978E+00  0.00000E+00  9.000E+00
      11     1     3     3     0     0 -2.914172659E-01  2.964222036E-01  1.286483807E+00  1.351973000E+00  5.110000000E-04  0.00000E+00  9.000E+00
     -11     1     3     3     0     0  6.393146375E-01 -2.162052704E-01  4.766907745E-01  8.262579987E-01  5.110000000E-04  0.00000E+00  9.000E+00
      -2     1     1     2     0   511 -4.561343608E-02  4.545659935E-02  1.560162774E-03  6.441523177E-02  0.000000000E+00  0.00000E+00  9.000E+00
      21     1     1     2   511   501 -3.022839356E-01 -1.256735325E-01  4.040978171E+00  4.054216816E+00  1.032382731E-07  0.00000E+00  9.000E+00
#rwgt            2         160   2482987.3267114325                3    17487675           0
<weights>
0.11145E+08
0.11769E+08
0.10253E+08
0.14304E+08
0.82150E+07
0.91702E+07
0.13910E+08
0.11065E+08
0.11248E+08
0.10825E+08
0.10803E+08
0.10970E+08
0.10989E+08
0.10839E+08
0.10815E+08
0.11203E+08
0.11250E+08
0.11481E+08
0.11486E+08
0.11474E+08
0.11459E+08
0.11513E+08
0.11521E+08
0.11416E+08
0.11312E+08
0.11324E+08
0.11211E+08
0.11462E+08
0.11346E+08
0.11496E+08
0.11517E+08
0.11170E+08
0.11234E+08
0.11139E+08
0.11179E+08
0.11118E+08
0.11201E+08
0.11149E+08
0.11070E+08
0.11167E+08
0.11125E+08
0.11200E+08
0.11088E+08
0.11510E+08
0.10810E+08
</weights>
</event>
<event>
      7  10001  1.11453E+07  2.04677E+00 -1.00000E+00  3.49731E-01
      -2    -1     0     0     0   502  0.000000000E+00  0.000000000E+00  3.531003366E-01  3.531003366E-01  0.000000000E+00  0.00000E+00  9.000E+00
      -1    -1     0     0     0   501  0.000000000E+00  0.000000000E+00 -3.074901186E+01  3.074901186E+01  0.000000000E+00  0.00000E+00  9.000E+00
      23     2     1     2     0     0 -1.101640466E-01  8.866677585E-01 -4.103086374E+00  4.372729589E+00  1.219479577E+00  0.00000E+00  9.000E+00
      11     1     3     3     0     0  1.546981718E-03  5.749544566E-02 -2.936886309E+00  2.937449502E+00  5.110000000E-04  0.00000E+00  9.000E+00
     -11     1     3     3     0     0 -1.117110283E-01  8.291723128E-01 -1.166200064E+00  1.435280087E+00  5.110000000E-04  0.00000E+00  9.000E+00
      -2     1     1     2     0   501  1.488121766E+00  6.267742543E-01 -2.088262052E+01  2.094495624E+01  0.000000000E+00  0.00000E+00  9.000E+00
      -1     1     1     2     0   502 -1.377957719E+00 -1.513442013E+00 -5.410204634E+00  5.784426366E+00  0.000000000E+00  0.00000E+00  9.000E+00
#rwgt            1           7   1642239.3758965232                3    17490263           0
<weights>
0.11145E+08
0.12614E+08
0.95944E+07
0.12307E+08
0.96833E+07
0.11224E+08
0.10757E+08
0.11276E+08
0.11012E+08
0.10648E+08
0.10707E+08
0.10871E+08
0.10961E+08
0.10689E+08
0.10704E+08
0.11249E+08
0.11242E+08
0.11578E+08
0.11642E+08
0.11639E+08
0.11543E+08
0.11606E+08
0.11711E+08
0.11318E+08
0.11568E+08
0.11487E+08
0.11001E+08
0.11548E+08
0.11382E+08
0.11545E+08
0.11633E+08
0.11151E+08
0.11284E+08
0.11153E+08
0.11161E+08
0.11344E+08
0.10973E+08
0.10878E+08
0.11240E+08
0.11168E+08
0.11126E+08
0.11181E+08
0.11108E+08
0.11652E+08
0.10675E+08
</weights>
</event>
<event>
      6  10001 -1.11453E+07  8.94427E-01 -1.00000E+00  2.55256E-01
      21    -1     0     0   502   501  0.000000000E+00  0.000000000E+00  2.352480742E-02  2.352480742E-02  0.000000000E+00  0.00000E+00  9.000E+00
       2    -1     0     0   501     0  0.000000000E+00  0.000000000E+00 -6.669991347E+02  6.669991347E+02  0.000000000E+00  0.00000E+00  9.000E+00
      23     2     1     2     0     0  6.357410286E-01  7.039614305E-01 -6.534475479E+02  6.534613841E+02  4.145235289E+00  0.00000E+00  9.000E+00
      11     1     3     3     0     0  3.630664803E-02  4.884122848E-01 -6.385888063E+02  6.385889941E+02  5.110000000E-04  0.00000E+00  9.000E+00
     -11     1     3     3     0     0  5.994343806E-01  2.155491457E-01 -1.485874161E+01  1.487239004E+01  5.110000000E-04  0.00000E+00  9.000E+00
       2     1     1     2   502     0 -6.357410286E-01 -7.039614305E-01 -1.352806200E+01  1.356127537E+01  0.000000000E+00  0.00000E+00  9.000E+00
#rwgt            1          17  -382141314.70200378                3    17510133           0
<weights>
-.11145E+08
-.11648E+08
-.10464E+08
-.14157E+08
-.83847E+07
-.91702E+07
-.13910E+08
-.11133E+08
-.11157E+08
-.11163E+08
-.11143E+08
-.10939E+08
-.11376E+08
-.11153E+08
-.11148E+08
-.11112E+08
-.11183E+08
-.11555E+08
-.10585E+08
-.10499E+08
-.11608E+08
-.11116E+08
-.11171E+08
-.10968E+08
-.11292E+08
-.11494E+08
-.10934E+08
-.10616E+08
-.11756E+08
-.11053E+08
-.11206E+08
-.11079E+08
-.11209E+08
-.11671E+08
-.10517E+08
-.11068E+08
-.11216E+08
-.11129E+08
-.11172E+08
-.11300E+08
-.11009E+08
-.11122E+08
-.11169E+08
-.11137E+08
-.11154E+08
</weights>
</event>
<event>
      6  10001  1.11453E+07  8.94427E-01 -1.00000E+00  5.87598E-01
       5    -1     0     0   501     0  0.000000000E+00  0.000000000E+00  4.246554871E-02  4.246554871E-02  0.000000000E+00  0.00000E+00  9.000E+00
      21    -1     0     0   502   501  0.000000000E+00  0.000000000E+00 -8.221194747E+01  8.221194747E+01  0.000000000E+00  0.00000E+00  9.000E+00
      23     2     1     2     0     0  2.678682021E-01  1.631931727E+00 -3.937272352E+01  3.942571371E+01  1.200245761E+00  0.00000E+00  9.000E+00
      11     1     3     3     0     0 -2.555989095E-01 -6.446538639E-02 -6.032663858E+00  6.038420329E+00  5.110000000E-04  0.00000E+00  9.000E+00
     -11     1     3     3     0     0  5.234671116E-01  1.696397113E+00 -3.334005966E+01  3.338729338E+01  5.110000000E-04  0.00000E+00  9.000E+00
       5     1     1     2   502     0 -2.678682021E-01 -1.631931727E+00 -4.279675840E+01  4.282869930E+01  0.000000000E+00  0.00000E+00  9.000E+00
#rwgt            1          30   113584.20862418786                3    17513256           0
<weights>
0.11145E+08
0.13272E+08
0.86139E+07
0.13277E+08
0.86604E+07
0.11066E+08
0.11000E+08
0.11289E+08
0.11004E+08
0.10822E+08
0.10985E+08
0.10924E+08
0.11126E+08
0.10954E+08
0.10978E+08
0.11223E+08
0.11058E+08
0.11296E+08
0.11266E+08
0.11255E+08
0.11292E+08
0.11285E+08
0.11315E+08
0.11127E+08
0.11378E+08
0.11300E+08
0.11048E+08
0.11240E+08
0.11161E+08
0.11189E+08
0.11296E+08
0.11049E+08
0.11292E+08
0.11194E+08
0.11092E+08
0.11368E+08
0.10945E+08
0.10583E+08
0.11763E+08
0.11051E+08
0.11231E+08
0.11138E+08
0.11154E+08
0.11365E+08
0.10916E+08
</weights>
</event>
<event>
      6  10001 -1.11453E+07  8.94427E-01 -1.00000E+00  3.39250E-01
      21    -1     0     0   502   501  0.000000000E+00  0.000000000E+00  2.435869358E-02  2.435869358E-02  0.000000000E+00  0.00000E+00  9.000E+00
       2    -1     0     0   501     0  0.000000000E+00  0.000000000E+00 -9.997287919E+01  9.997287919E+01  0.000000000E+00  0.00000E+00  9.000E+00
      23     2     1     2     0     0  3.000842671E-01  5.999707834E-02 -9.883069959E+01  9.883828413E+01  1.185571068E+00  0.00000E+00  9.000E+00
      11     1     3     3     0     0  3.256150253E-01 -5.264215436E-01 -4.213976267E+01  4.214430855E+01  5.110000000E-04  0.00000E+00  9.000E+00
     -11     1     3     3     0     0 -2.553075818E-02  5.864186219E-01 -5.669093692E+01  5.669397558E+01  5.110000000E-04  0.00000E+00  9.000E+00
       2     1     1     2   502     0 -3.000842671E-01 -5.999707834E-02 -1.117820911E+00  1.158953755E+00  0.000000000E+00  0.00000E+00  9.000E+00
#rwgt            1          17  -59275550.364341244                3    17514386           0
<weights>
-.11145E+08
-.12382E+08
-.97715E+07
-.15049E+08
-.78295E+07
-.91702E+07
-.13910E+08
-.11152E+08
-.11138E+08
-.11150E+08
-.11166E+08
-.11158E+08
-.11120E+08
-.11166E+08
-.11167E+08
-.11188E+08
-.11047E+08
-.11091E+08
-.11149E+08
-.11153E+08
-.11087E+08
-.11118E+08
-.11116E+08
-.11229E+08
-.11023E+08
-.11067E+08
-.11178E+08
-.11201E+08
-.10991E+08
-.11127E+08
-.11112E+08
-.11122E+08
-.11158E+08
-.11100E+08
-.11198E+08
-.11135E+08
-.11150E+08
-.11125E+08
-.11174E+08
-.11103E+08
-.11178E+08
-.11192E+08
-.11095E+08
-.11124E+08
-.11162E+08
</weights>
</event>
<event>
      7  10001  1.11453E+07  8.94427E-01 -1.00000E+00  6.07649E-01
      21    -1     0     0   511   502  0.000000000E+00  0.000000000E+00  5.963178523E+01  5.963178523E+01  0.000000000E+00  0.00000E+00  9.000E+00
       4    -1     0     0   501     0  0.000000000E+00  0.000000000E+00 -2.983030903E-01  2.983030903E-01  0.000000000E+00  0.00000E+00  9.000E+00
      23     2     1     2     0     0  9.780942039E-02  2.615481650E-01  7.929004770E-01  1.376046223E+00  1.089420908E+00  0.00000E+00  9.000E+00
      11     1     3     3     0     0 -2.501766670E-01  5.590434985E-01  2.390374179E-01  6.574626577E-01  5.110000000E-04  0.00000E+00  9.000E+00
     -11     1     3     3     0     0  3.479860874E-01 -2.974953335E-01  5.538630591E-01  7.185835650E-01  5.110000000E-04  0.00000E+00  9.000E+00
      21     1     1     2   501   502 -6.817317998E-02 -4.506879219E-01  5.697159396E+01  5.697341735E+01  6.743495762E-07  0.00000E+00  9.000E+00
       4     1     1     2   511     0 -2.963624040E-02  1.891397569E-01  1.568987712E+00  1.580624748E+00  0.000000000E+00  0.00000E+00  9.000E+00
#rwgt            2         196   1101723.2354731795                3    17517565           0
<weights>
0.11145E+08
0.10881E+08
0.11224E+08
0.13224E+08
0.89935E+07
0.91702E+07
0.13910E+08
0.11189E+08
0.11099E+08
0.10807E+08
0.10793E+08
0.10951E+08
0.11002E+08
0.10823E+08
0.10804E+08
0.11233E+08
0.11217E+08
0.11489E+08
0.11508E+08
0.11502E+08
0.11463E+08
0.11526E+08
0.11542E+08
0.11389E+08
0.11355E+08
0.11317E+08
0.11214E+08
0.11463E+08
0.11378E+08
0.11505E+08
0.11538E+08
0.11191E+08
0.11216E+08
0.11133E+08
0.11184E+08
0.11225E+08
0.11084E+08
0.11150E+08
0.11063E+08
0.11172E+08
0.11123E+08
0.11184E+08
0.11105E+08
0.11527E+08
0.10795E+08
</weights>
</event>
<event>
      6  10001  1.11453E+07  8.94427E-01 -1.00000E+00  6.02476E-01
      -4    -1     0     0     0   502  0.000000000E+00  0.000000000E+00  1.971646579E-01  1.971646579E-01  0.000000000E+00  0.00000E+00  9.000E+00
      21    -1     0     0   502   501  0.000000000E+00  0.000000000E+00 -9.287947659E+01  9.287947659E+01  0.000000000E+00  0.00000E+00  9.000E+00
      23     2     1     2     0     0 -3.936341219E-01  2.319789735E-01 -9.622282391E+00  1.001535502E+01  2.740484582E+00  0.00000E+00  9.000E+00
      11     1     3     3     0     0 -1.093068485E+00  1.173940968E+00 -5.422119246E+00  5.654406555E+00  5.110000000E-04  0.00000E+00  9.000E+00
     -11     1     3     3     0     0  6.994343635E-01 -9.419619948E-01 -4.200163145E+00  4.360948467E+00  5.110000000E-04  0.00000E+00  9.000E+00
      -4     1     1     2     0   501  3.936341219E-01 -2.319789735E-01 -8.306002954E+01  8.306128623E+01  0.000000000E+00  0.00000E+00  9.000E+00
#rwgt            1           3   1597024.2523082215                3    17518006           0
<weights>
0.11145E+08
0.12113E+08
0.99199E+07
0.12639E+08
0.94625E+07
0.10652E+08
0.11635E+08
0.11279E+08
0.11014E+08
0.10859E+08
0.11016E+08
0.10938E+08
0.11149E+08
0.10992E+08
0.11011E+08
0.11209E+08
0.11056E+08
0.11261E+08
0.11226E+08
0.11215E+08
0.11260E+08
0.11252E+08
0.11264E+08
0.11117E+08
0.11339E+08
0.11277E+08
0.11059E+08
0.11215E+08
0.11137E+08
0.11159E+08
0.11257E+08
0.11050E+08
0.11279E+08
0.11190E+08
0.11095E+08
0.11358E+08
0.10953E+08
0.10597E+08
0.11763E+08
0.11043E+08
0.11238E+08
0.11129E+08
0.11163E+08
0.11327E+08
0.10950E+08
</weights>
</event>
<event>
      7  10001  1.11453E+07  1.89526E+01 -1.00000E+00  1.68136E-01
      -3    -1     0     0     0   502  0.000000000E+00  0.000000000E+00  1.832800735E+01  1.832800735E+01  0.000000000E+00  0.00000E+00  9.000E+00
      21    -1     0     0   502   501  0.000000000E+00  0.000000000E+00 -5.067163291E+00  5.067163291E+00  0.000000000E+00  0.00000E+00  9.000E+00
      23     2     1     2     0     0 -7.215596120E-01  1.338578562E+00  6.701144542E+00  6.993642667E+00  1.301252754E+00  0.00000E+00  9.000E+00
      11     1     3     3     0     0  7.924620358E-02  1.040765718E+00  4.754960272E+00  4.868174267E+00  5.110000000E-04  0.00000E+00  9.000E+00
     -11     1     3     3     0     0 -8.008058155E-01  2.978128444E-01  1.946184270E+00  2.125468400E+00  5.110000000E-04  0.00000E+00  9.000E+00
      -3     1     1     2     0   511  1.121388931E-01  1.447325457E+00  1.101578933E+01  1.111102788E+01  0.000000000E+00  0.00000E+00  9.000E+00
      21     1     1     2   511   501  6.094207189E-01 -2.785904019E+00 -4.456089810E+00  5.290500091E+00  2.717736510E-06  0.00000E+00  9.000E+00
#rwgt            2          71   3951350.8952622134                3    17573797           0
<weights>
0.11145E+08
0.10608E+08
0.11533E+08
0.12893E+08
0.92408E+07
0.91702E+07
0.13910E+08
0.11206E+08
0.11081E+08
0.10881E+08
0.10899E+08
0.10980E+08
0.11060E+08
0.10909E+08
0.10906E+08
0.11218E+08
0.11168E+08
0.11385E+08
0.11390E+08
0.11387E+08
0.11366E+08
0.11401E+08
0.11431E+08
0.11263E+08
0.11338E+08
0.11289E+08
0.11101E+08
0.11355E+08
0.11287E+08
0.11369E+08
0.11413E+08
0.11157E+08
0.11212E+08
0.11141E+08
0.11164E+08
0.11244E+08
0.11060E+08
0.11029E+08
0.11188E+08
0.11140E+08
0.11151E+08
0.11167E+08
0.11123E+08
0.11419E+08
0.10889E+08
</weights>
</event>
<event>
      7  10001  1.11453E+07  6.06084E+01 -1.00000E+00  1.34446E-01
      21    -1     0     0   502   501  0.000000000E+00  0.000000000E+00  7.814915756E-01  7.814915756E-01  0.000000000E+00  0.00000E+00  9.000E+00
       2    -1     0     0   501     0  0.000000000E+00  0.000000000E+00 -1.324397379E+03  1.324397379E+03  0.000000000E+00  0.00000E+00  9.000E+00
      23     2     1     2     0     0  3.268216946E+00 -1.769154058E-01 -5.568730335E+02  5.568872689E+02  2.267663448E+00  0.00000E+00  9.000E+00
      11     1     3     3     0     0  9.828525065E-01 -1.069230212E+00 -1.573362619E+02  1.573429648E+02  5.110000000E-04  0.00000E+00  9.000E+00
     -11     1     3     3     0     0  2.285364439E+00  8.923148059E-01 -3.995367716E+02  3.995443041E+02  5.110000000E-04  0.00000E+00  9.000E+00
       2     1     1     2   512     0 -4.015057722E+00  1.228281327E+01 -7.160993186E+02  7.162159048E+02  0.000000000E+00  0.00000E+00  9.000E+00
      21     1     1     2   502   512  7.468407760E-01 -1.210589787E+01 -5.064353563E+01  5.207569717E+01  6.877043296E-06  0.00000E+00  9.000E+00
#rwgt            2         189   54021555.045165695                3    17578551           0
<weights>
0.11145E+08
0.92696E+07
0.13510E+08
0.11266E+08
0.10825E+08
0.91702E+07
0.13910E+08
0.11149E+08
0.11142E+08
0.11169E+08
0.11120E+08
0.10891E+08
0.11427E+08
0.11151E+08
0.11141E+08
0.10056E+08
0.12900E+08
0.11593E+08
0.10546E+08
0.10424E+08
0.11675E+08
0.11165E+08
0.11115E+08
0.10801E+08
0.11479E+08
0.12048E+08
0.10628E+08
0.10361E+08
0.12104E+08
0.11050E+08
0.11214E+08
0.11554E+08
0.10742E+08
0.12045E+08
0.10121E+08
0.10983E+08
0.11296E+08
0.11085E+08
0.11225E+08
0.11404E+08
0.10920E+08
0.11097E+08
0.11196E+08
0.11143E+08
0.11148E+08
</weights>
</event>
<event>
      6  10001 -1.11453E+07  8.94427E-01 -1.00000E+00  4.27777E-01
       4    -1     0     0   501     0  0.000000000E+00  0.000000000E+00  5.315304610E+00  5.315304610E+00  0.000000000E+00  0.00000E+00  9.000E+00
      21    -1     0     0   502   501  0.000000000E+00  0.000000000E+00 -1.301870315E-01  1.301870315E-01  0.000000000E+00  0.00000E+00  9.000E+00
      23     2     1     2     0     0  7.446696583E-02  2.454699455E-01  4.944718691E+00  5.093934465E+00  1.196714076E+00  0.00000E+00  9.000E+00
      11     1     3     3     0     0  6.316914401E-01  1.093570893E-01  2.296383503E+00  2.384191792E+00  5.110000000E-04  0.00000E+00  9.000E+00
     -11     1     3     3     0     0 -5.572244743E-01  1.361128562E-01  2.648335188E+00  2.709742673E+00  5.110000000E-04  0.00000E+00  9.000E+00
       4     1     1     2   502     0 -7.446696583E-02 -2.454699455E-01  2.403988877E-01  3.515571765E-01  0.000000000E+00  0.00000E+00  9.000E+00
#rwgt            1          28  -317411.50112013501                3    17580569           0
<weights>
-.11145E+08
-.11177E+08
-.10521E+08
-.17333E+08
-.64787E+07
-.68774E+07
-.17430E+08
-.11170E+08
-.11118E+08
-.11180E+08
-.11184E+08
-.11131E+08
-.11201E+08
-.11163E+08
-.11186E+08
-.11126E+08
-.11136E+08
-.11102E+08
-.11115E+08
-.11122E+08
-.11104E+08
-.11087E+08
-.11134E+08
-.11065E+08
-.11157E+08
-.11148E+08
-.10975E+08
-.11109E+08
-.11092E+08
-.11083E+08
-.11095E+08
-.11119E+08
-.11155E+08
-.11144E+08
-.11140E+08
-.11179E+08
-.11110E+08
-.11075E+08
-.11186E+08
-.11122E+08
-.11167E+08
-.11122E+08
-.11170E+08
-.11104E+08
-.11184E+08
</weights>
</event>
<event>
      7  10001  1.11453E+07  3.06128E+00 -1.00000E+00  2.89763E-01
      21    -1     0     0   502   501  0.000000000E+00  0.000000000E+00  1.680173459E+00  1.680173459E+00  0.000000000E+00  0.00000E+00  9.000E+00
      -3    -1     0     0     0   502  0.000000000E+00  0.000000000E+00 -7.310962068E+00  7.310962068E+00  0.000000000E+00  0.00000E+00  9.000E+00
      23     2     1     2     0     0 -2.315564821E-01  1.736836149E+00 -4.322531055E+00  4.778970336E+00  1.041184202E+00  0.00000E+00  9.000E+00
      11     1     3     3     0     0  3.610184402E-01  2.831160230E-01 -7.948601757E-01  9.177646521E-01  5.110000000E-04  0.00000E+00  9.000E+00
     -11     1     3     3     0     0 -5.925749223E-01  1.453720126E+00 -3.527670879E+00  3.861205684E+00  5.110000000E-04  0.00000E+00  9.000E+00
      -3     1     1     2     0   511 -5.160379607E-01 -2.463807043E+00 -1.764341114E+00  3.074010392E+00  0.000000000E+00  0.00000E+00  9.000E+00
      21     1     1     2   511   501  7.475944428E-01  7.269708942E-01  4.560835599E-01  1.138154799E+00  1.663499591E-07  0.00000E+00  9.000E+00
#rwgt            1          13   998410.46239862754                3    17610225           0
<weights>
0.11145E+08
0.12247E+08
0.99878E+07
0.12742E+08
0.93548E+07
0.10598E+08
0.11718E+08
0.11201E+08
0.11086E+08
0.10812E+08
0.10869E+08
0.11097E+08
0.10867E+08
0.10850E+08
0.10852E+08
0.11458E+08
0.10768E+08
0.11231E+08
0.11781E+08
0.11759E+08
0.11205E+08
0.11429E+08
0.11557E+08
0.11874E+08
0.10858E+08
0.10029E+08
0.13208E+08
0.10967E+08
0.11939E+08
0.11385E+08
0.11517E+08
0.11226E+08
0.11163E+08
0.11171E+08
0.11142E+08
0.11268E+08
0.11038E+08
0.11061E+08
0.11119E+08
0.11173E+08
0.11117E+08
0.11219E+08
0.11067E+08
0.11480E+08
0.10836E+08
</weights>
</event>
<event>
      7  10001  1.11453E+07  9.56566E-01 -1.00000E+00  5.80052E-01
      -2    -1     0     0     0   502  0.000000000E+00  0.000000000E+00  2.121466702E+00  2.121466702E+00  0.000000000E+00  0.00000E+00  9.000E+00
       2    -1     0     0   501     0  0.000000000E+00  0.000000000E+00 -8.899369068E-01  8.899369068E-01  0.000000000E+00  0.00000E+00  9.000E+00
      23     2     1     2     0     0  4.124080608E-01 -1.158658240E-01  1.468837622E+00  1.921881889E+00  1.163030841E+00  0.00000E+00  9.000E+00
      11     1     3     3     0     0  5.242692934E-01 -4.174121963E-01  3.466061376E-01  7.544715431E-01  5.110000000E-04  0.00000E+00  9.000E+00
     -11     1     3     3     0     0 -1.118612326E-01  3.015463723E-01  1.122231484E+00  1.167410346E+00  5.110000000E-04  0.00000E+00  9.000E+00
       2     1     1     2   501     0 -1.513803099E-01 -4.100341350E-01 -2.475419223E-01  5.023156312E-01  0.000000000E+00  0.00000E+00  9.000E+00
      -2     1     1     2     0   502 -2.610277509E-01  5.258999589E-01  1.023409511E-02  5.872060884E-01  0.000000000E+00  0.00000E+00  9.000E+00
#rwgt            1           8   263810.98384963331                3    17618039           0
<weights>
0.11145E+08
0.12231E+08
0.10133E+08
0.10861E+08
0.10432E+08
0.11723E+08
0.99915E+07
0.10956E+08
0.11360E+08
0.10814E+08
0.10767E+08
0.10983E+08
0.10943E+08
0.10819E+08
0.10783E+08
0.11162E+08
0.11336E+08
0.11513E+08
0.11516E+08
0.11501E+08
0.11491E+08
0.11558E+08
0.11544E+08
0.11460E+08
0.11302E+08
0.11373E+08
0.11146E+08
0.11537E+08
0.11316E+08
0.11551E+08
0.11547E+08
0.11166E+08
0.11251E+08
0.11132E+08
0.11197E+08
0.10986E+08
0.11342E+08
0.11205E+08
0.11013E+08
0.11174E+08
0.11118E+08
0.11228E+08
0.11058E+08
0.11539E+08
0.10786E+08
</weights>
</event>
<event>
      6  10001 -1.11453E+07  8.94427E-01 -1.00000E+00  4.83435E-01
       2    -1     0     0   501     0  0.000000000E+00  0.000000000E+00  2.806722420E+02  2.806722420E+02  0.000000000E+00  0.00000E+00  9.000E+00
      21    -1     0     0   502   501  0.000000000E+00  0.000000000E+00 -1.186118150E-02  1.186118150E-02  0.000000000E+00  0.00000E+00  9.000E+00
      23     2     1     2     0     0 -4.741574971E-01 -3.790213444E-01  1.916410429E+02  1.916626956E+02  2.816217728E+00  0.00000E+00  9.000E+00
      11     1     3     3     0     0  9.124669063E-01  3.442354411E-01  1.228803358E+02  1.228842058E+02  5.110000000E-04  0.00000E+00  9.000E+00
     -11     1     3     3     0     0 -1.386624403E+00 -7.232567855E-01  6.876070706E+01  6.877848983E+01  5.110000000E-04  0.00000E+00  9.000E+00
       2     1     1     2   502     0  4.741574971E-01  3.790213444E-01  8.901933794E+01  8.902140759E+01  0.000000000E+00  0.00000E+00  9.000E+00
#rwgt            1          24  -6525820.1249110736                3    17619194           0
<weights>
-.11145E+08
-.12328E+08
-.97397E+07
-.14990E+08
-.78041E+07
-.91661E+07
-.13909E+08
-.11178E+08
-.11112E+08
-.10836E+08
-.10833E+08
-.10967E+08
-.11017E+08
-.10856E+08
-.10842E+08
-.11224E+08
-.11201E+08
-.11444E+08
-.11480E+08
-.11470E+08
-.11421E+08
-.11478E+08
-.11501E+08
-.11381E+08
-.11329E+08
-.11283E+08
-.11307E+08
-.11415E+08
-.11354E+08
-.11454E+08
-.11491E+08
-.11177E+08
-.11216E+08
-.11139E+08
-.11174E+08
-.11214E+08
-.11094E+08
-.11107E+08
-.11109E+08
-.11160E+08
-.11133E+08
-.11182E+08
-.11107E+08
-.11486E+08
-.10831E+08
</weights>
</event>
<event>
      7  10001  1.11453E+07  2.12932E+00 -1.00000E+00  3.42712E-01
       2    -1     0     0   501     0  0.000000000E+00  0.000000000E+00  1.320833259E+02  1.320833259E+02  0.000000000E+00  0.00000E+00  9.000E+00
      21    -1     0     0   511   502  0.000000000E+00  0.000000000E+00 -2.096435485E-01  2.096435485E-01  0.000000000E+00  0.00000E+00  9.000E+00
      23     2     1     2     0     0  2.595864853E+00  1.844510029E+00  6.160728616E+01  6.171985124E+01  1.934321255E+00  0.00000E+00  9.000E+00
      11     1     3     3     0     0  1.748371506E+00  1.398895501E+00  2.500797152E+01  2.510801369E+01  5.110000000E-04  0.00000E+00  9.000E+00
     -11     1     3     3     0     0  8.474933469E-01  4.456145277E-01  3.659931464E+01  3.661183756E+01  5.110000000E-04  0.00000E+00  9.000E+00
      21     1     1     2   501   502 -5.840421257E-01 -1.146959225E+00  6.268939333E+01  6.270260486E+01  1.168007728E-06  0.00000E+00  9.000E+00
       2     1     1     2   511     0 -2.011822727E+00 -6.975508037E-01  7.577002903E+00  7.870513376E+00  0.000000000E+00  0.00000E+00  9.000E+00
#rwgt            1          23   291406.09850936208                3    17620408           0
<weights>
0.11145E+08
0.12362E+08
0.10006E+08
0.11114E+08
0.10522E+08
0.11785E+08
0.98962E+07
0.10840E+08
0.11568E+08
0.10791E+08
0.10732E+08
0.10971E+08
0.10929E+08
0.10793E+08
0.10749E+08
0.11179E+08
0.11330E+08
0.11546E+08
0.11568E+08
0.11542E+08
0.11525E+08
0.11598E+08
0.11581E+08
0.11582E+08
0.11257E+08
0.11347E+08
0.11409E+08
0.11545E+08
0.11385E+08
0.11593E+08
0.11590E+08
0.11171E+08
0.11258E+08
0.11133E+08
0.11196E+08
0.10976E+08
0.11367E+08
0.11246E+08
0.10978E+08
0.11186E+08
0.11108E+08
0.11228E+08
0.11058E+08
0.11574E+08
0.10755E+08
</weights>
</event>
<event>
      7  10001  1.11453E+07  9.94197E+00 -1.00000E+00  1.95552E-01
      21    -1     0     0   511   501  0.000000000E+00  0.000000000E+00  1.987779079E+02  1.987779079E+02  0.000000000E+00  0.00000E+00  9.000E+00
       2    -1     0     0   501     0  0.000000000E+00  0.000000000E+00 -2.495390350E+02  2.495390350E+02  0.000000000E+00  0.00000E+00  9.000E+00
      23     2     1     2     0     0  4.252580401E+00  9.528505802E-01 -1.131137598E+02  1.132025860E+02  1.053786485E+00  0.00000E+00  9.000E+00
      11     1     3     3     0     0  2.229190737E+00  4.196845454E-01 -4.556831762E+01  4.562474107E+01  5.110000000E-04  0.00000E+00  9.000E+00
     -11     1     3     3     0     0  2.023389664E+00  5.331660347E-01 -6.754544214E+01  6.757784493E+01  5.110000000E-04  0.00000E+00  9.000E+00
       2     1     1     2   502     0  5.664051203E+00 -1.662254928E+00 -1.361925493E+02  1.363204132E+02  0.000000000E+00  0.00000E+00  9.000E+00
      21     1     1     2   511   502 -9.916631605E+00  7.094043481E-01  1.985451819E+02  1.987939438E+02  0.000000000E+00  0.00000E+00  9.000E+00
#rwgt            1          17   1255952.7326155121                3    17621764           0
<weights>
0.11145E+08
0.13502E+08
0.88309E+07
0.12297E+08
0.96046E+07
0.11873E+08
0.97610E+07
0.11189E+08
0.11102E+08
0.11081E+08
0.11124E+08
0.11201E+08
0.11001E+08
0.11113E+08
0.11119E+08
0.11088E+08
0.11205E+08
0.11009E+08
0.11377E+08
0.11401E+08
0.10992E+08
0.11175E+08
0.11161E+08
0.11289E+08
0.11042E+08
0.11051E+08
0.11195E+08
0.11393E+08
0.10822E+08
0.11189E+08
0.11139E+08
0.11164E+08
0.11131E+08
0.10998E+08
0.11338E+08
0.11110E+08
0.11175E+08
0.11064E+08
0.11231E+08
0.11067E+08
0.11206E+08
0.11237E+08
0.11048E+08
0.11180E+08
0.11108E+08
</weights>
</event>
<event>
      6  10001 -1.11453E+07  8.94427E-01 -1.00000E+00  2.43029E-01
      -5    -1     0     0     0   502  0.000000000E+00  0.000000000E+00  8.491320238E+00  8.491320238E+00  0.000000000E+00  0.00000E+00  9.000E+00
       5    -1     0     0   501     0  0.000000000E+00  0.000000000E+00 -3.227559104E-01  3.227559104E-01  0.000000000E+00  0.00000E+00  9.000E+00
      23     2     1     2     0     0  2.512970015E-01 -4.301768282E-02  7.954193742E+00  8.480976386E+00  2.931341274E+00  0.00000E+00  9.000E+00
      11     1     3     3     0     0  1.518546971E+00  2.077051899E-01  5.474012710E+00  5.684535316E+00  5.110000000E-04  0.00000E+00  9.000E+00
     -11     1     3     3     0     0 -1.267249969E+00 -2.507228727E-01  2.480181032E+00  2.796441070E+00  5.110000000E-04  0.00000E+00  9.000E+00
      21     1     1     2   501   502 -2.512970015E-01  4.301768282E-02  2.143705857E-01  3.330997628E-01  1.020212765E-08  0.00000E+00  9.000E+00
#rwgt            1           2  -103393.76343683865                3    17623827           0
<weights>
-.11145E+08
-.11560E+08
-.10068E+08
-.15990E+08
-.72413E+07
-.80738E+07
-.15593E+08
-.11194E+08
-.11094E+08
-.10850E+08
-.10853E+08
-.10970E+08
-.11031E+08
-.10872E+08
-.10862E+08
-.11224E+08
-.11188E+08
-.11428E+08
-.11446E+08
-.11440E+08
-.11406E+08
-.11455E+08
-.11479E+08
-.11331E+08
-.11335E+08
-.11286E+08
-.11191E+08
-.11397E+08
-.11332E+08
-.11428E+08
-.11467E+08
-.11172E+08
-.11214E+08
-.11139E+08
-.11171E+08
-.11228E+08
-.11079E+08
-.11084E+08
-.11133E+08
-.11154E+08
-.11139E+08
-.11176E+08
-.11113E+08
-.11466E+08
-.10849E+08
</weights>
</event>
<event>
      7  10001  1.11453E+07  1.82513E+00 -1.00000E+00  3.71823E-01
      21    -1     0     0   502   511  0.000000000E+00  0.000000000E+00  9.779672185E-01  9.779672185E-01  0.000000000E+00  0.00000E+00  9.000E+00
       4    -1     0     0   501     0  0.000000000E+00  0.000000000E+00 -2.919341795E+01  2.919341795E+01  0.000000000E+00  0.00000E+00  9.000E+00
      23     2     1     2     0     0 -1.107312610E+00 -2.551104917E+00 -1.776689206E+01  1.810551064E+01  2.100662825E+00  0.00000E+00  9.000E+00
      11     1     3     3     0     0 -9.191428527E-01 -2.597961499E+00 -1.767919692E+01  1.789268654E+01  5.110000000E-04  0.00000E+00  9.000E+00
     -11     1     3     3     0     0 -1.881697570E-01  4.685658128E-02 -8.769513844E-02  2.128240942E-01  5.110000000E-04  0.00000E+00  9.000E+00
       4     1     1     2   502     0 -4.676160694E-01  1.628780015E+00 -1.005758314E+01  1.019934154E+01  0.000000000E+00  0.00000E+00  9.000E+00
      21     1     1     2   501   511  1.574928679E+00  9.223249021E-01 -3.909755294E-01  1.866532998E+00  4.280032699E-08  0.00000E+00  9.000E+00
#rwgt            1          19   228230.01694343818                3    17624695           0
<weights>
0.11145E+08
0.16866E+08
0.58263E+07
0.11589E+08
0.99635E+07
0.14955E+08
0.50304E+07
0.11340E+08
0.10950E+08
0.10492E+08
0.10615E+08
0.10779E+08
0.10939E+08
0.10564E+08
0.10604E+08
0.11242E+08
0.11297E+08
0.11656E+08
0.11783E+08
0.11777E+08
0.11622E+08
0.11694E+08
0.11853E+08
0.11329E+08
0.11715E+08
0.11648E+08
0.10943E+08
0.11658E+08
0.11379E+08
0.11597E+08
0.11729E+08
0.11113E+08
0.11354E+08
0.11180E+08
0.11134E+08
0.11452E+08
0.10877E+08
0.10651E+08
0.11458E+08
0.11157E+08
0.11138E+08
0.11165E+08
0.11126E+08
0.11777E+08
0.10554E+08
</weights>
</event>
<event>
      6  10001 -1.11453E+07  8.94427E-01 -1.00000E+00  6.02848E-01
      21    -1     0     0   502   501  0.000000000E+00  0.000000000E+00  5.919013016E-01  5.919013016E-01  0.000000000E+00  0.00000E+00  9.000E+00
       4    -1     0     0   501     0  0.000000000E+00  0.000000000E+00 -1.944587087E+00  1.944587087E+00  0.000000000E+00  0.00000E+00  9.000E+00
      23     2     1     2     0     0  1.101037118E-01 -2.315346676E-01 -1.629046079E+00  2.159518706E+00  1.394273569E+00  0.00000E+00  9.000E+00
      11     1     3     3     0     0 -4.882369908E-01 -5.243264064E-01 -6.041899482E-01  9.371975749E-01  5.110000000E-04  0.00000E+00  9.000E+00
     -11     1     3     3     0     0  5.983407027E-01  2.927917388E-01 -1.024856131E+00  1.222321131E+00  5.110000000E-04  0.00000E+00  9.000E+00
       4     1     1     2   502     0 -1.101037118E-01  2.315346676E-01  2.763602934E-01  3.769696824E-01  0.000000000E+00  0.00000E+00  9.000E+00
#rwgt            1          19  -240476.10991276166                3    17633947           0
<weights>
-.11145E+08
-.80834E+07
-.13257E+08
-.16706E+08
-.69106E+07
-.48995E+07
-.20466E+08
-.11211E+08
-.11079E+08
-.10976E+08
-.11037E+08
-.11024E+08
-.11127E+08
-.11021E+08
-.11038E+08
-.11196E+08
-.11103E+08
-.11242E+08
-.11255E+08
-.11250E+08
-.11236E+08
-.11238E+08
-.11287E+08
-.11150E+08
-.11283E+08
-.11211E+08
-.11099E+08
-.11202E+08
-.11185E+08
-.11195E+08
-.11251E+08
-.11112E+08
-.11210E+08
-.11158E+08
-.11133E+08
-.11244E+08
-.11056E+08
-.10883E+08
-.11356E+08
-.11097E+08
-.11188E+08
-.11151E+08
-.11140E+08
-.11279E+08
-.11012E+08
</weights>
</event>
<event>
      6  10001 -1.11453E+07  8.94427E-01 -1.00000E+00  2.24845E-01
       2    -1     0     0   501     0  0.000000000E+00  0.000000000E+00  4.554378467E-03  4.554378467E-03  0.000000000E+00  0.00000E+00  9.000E+00
      -2    -1     0     0     0   502  0.000000000E+00  0.000000000E+00 -1.961878760E+02  1.961878760E+02  0.000000000E+00  0.00000E+00  9.000E+00
      23     2     1     2     0     0  2.496952502E-01  3.252910662E-02 -1.896754142E+02  1.896796533E+02  1.242871685E+00  0.00000E+00  9.000E+00
      11     1     3     3     0     0  2.343425336E-01 -3.293262657E-01 -1.722565672E+02  1.722570414E+02  5.110000000E-04  0.00000E+00  9.000E+00
     -11     1     3     3     0     0  1.535271658E-02  3.618553723E-01 -1.741884699E+01  1.742261191E+01  5.110000000E-04  0.00000E+00  9.000E+00
      21     1     1     2   501   502 -2.496952502E-01 -3.252910662E-02 -6.507907422E+00  6.512777048E+00  1.884864366E-07  0.00000E+00  9.000E+00
#rwgt            1          23  -41863.881976790930                3    17640956           0
<weights>
-.11145E+08
-.11617E+08
-.10478E+08
-.14119E+08
-.83958E+07
-.91702E+07
-.13910E+08
-.11060E+08
-.11224E+08
-.11318E+08
-.11291E+08
-.11134E+08
-.11238E+08
-.11306E+08
-.11304E+08
-.11034E+08
-.11194E+08
-.11056E+08
-.10902E+08
-.10879E+08
-.11077E+08
-.10974E+08
-.10971E+08
-.11117E+08
-.10977E+08
-.11008E+08
-.11176E+08
-.10996E+08
-.10966E+08
-.11002E+08
-.10993E+08
-.11233E+08
-.11001E+08
-.11307E+08
-.10986E+08
-.11156E+08
-.11113E+08
-.11318E+08
-.10971E+08
-.11118E+08
-.11153E+08
-.11304E+08
-.10975E+08
-.10964E+08
-.11313E+08
</weights>
</event>
<event>
      6  10001 -1.11453E+07  8.94427E-01 -1.00000E+00  5.54181E-01
       4    -1     0     0   501     0  0.000000000E+00  0.000000000E+00  2.327726506E-02  2.327726506E-02  0.000000000E+00  0.00000E+00  9.000E+00
      -4    -1     0     0     0   502  0.000000000E+00  0.000000000E+00 -3.355403079E+01  3.355403079E+01  0.000000000E+00  0.00000E+00  9.000E+00
      23     2     1     2     0     0  8.168551360E-02  5.824365576E-01 -2.306025417E+01  2.309030364E+01  1.020242579E+00  0.00000E+00  9.000E+00
      11     1     3     3     0     0  9.022799660E-02 -2.765790638E-01 -8.276293716E+00  8.281405376E+00  5.110000000E-04  0.00000E+00  9.000E+00
     -11     1     3     3     0     0 -8.542482999E-03  8.590156215E-01 -1.478396045E+01  1.480889826E+01  5.110000000E-04  0.00000E+00  9.000E+00
      21     1     1     2   501   502 -8.168551360E-02 -5.824365576E-01 -1.047049936E+01  1.048700442E+01  1.685873940E-07  0.00000E+00  9.000E+00
#rwgt            1          27  -936974.78834179253                3    17642635           0
<weights>
-.11145E+08
-.13540E+08
-.87124E+07
-.16456E+08
-.69808E+07
-.91702E+07
-.13910E+08
-.11245E+08
-.11046E+08
-.10885E+08
-.10973E+08
-.10955E+08
-.11131E+08
-.10954E+08
-.10974E+08
-.11192E+08
-.11138E+08
-.11301E+08
-.11319E+08
-.11312E+08
-.11293E+08
-.11303E+08
-.11352E+08
-.11172E+08
-.11350E+08
-.11314E+08
-.11056E+08
-.11286E+08
-.11180E+08
-.11241E+08
-.11314E+08
-.11097E+08
-.11247E+08
-.11168E+08
-.11125E+08
-.11316E+08
-.10993E+08
-.10786E+08
-.11487E+08
-.11084E+08
-.11202E+08
-.11132E+08
-.11160E+08
-.11358E+08
-.10935E+08
</weights>
</event>
<event>
      7  10001  1.11453E+07  8.94427E-01 -1.00000E+00  6.07649E-01
      -2    -1     0     0     0   501  0.000000000E+00  0.000000000E+00  1.635225748E-01  1.635225748E-01  0.000000000E+00  0.00000E+00  9.000E+00
      -3    -1     0     0     0   502  0.000000000E+00  0.000000000E+00 -4.870675341E+01  4.870675341E+01  0.000000000E+00  0.00000E+00  9.000E+00
      23     2     1     2     0     0 -4.440201293E-01 -7.033653541E-02 -3.530002421E+00  3.835772627E+00  1.431828709E+00  0.00000E+00  9.000E+00
      11     1     3     3     0     0 -3.523442566E-01  6.665037976E-01 -1.632987048E+00  1.798616343E+00  5.110000000E-04  0.00000E+00  9.000E+00
     -11     1     3     3     0     0 -9.167587271E-02 -7.368403330E-01 -1.897015373E+00  2.037156285E+00  5.110000000E-04  0.00000E+00  9.000E+00
      -3     1     1     2     0   501  1.171085732E-01 -9.065109704E-02 -4.186406759E+01  4.186432953E+01  0.000000000E+00  0.00000E+00  9.000E+00
      -2     1     1     2     0   502  3.269115561E-01  1.609876325E-01 -3.149160820E+00  3.170173821E+00  0.000000000E+00  0.00000E+00  9.000E+00
#rwgt            2          95   2549.2820967785065                3    17646277           0
<weights>
0.11145E+08
0.11120E+08
0.11039E+08
0.13515E+08
0.88452E+07
0.91702E+07
0.13910E+08
0.11179E+08
0.11111E+08
0.10976E+08
0.11128E+08
0.11273E+08
0.10867E+08
0.11074E+08
0.11075E+08
0.12033E+08
0.99282E+07
0.11384E+08
0.10903E+08
0.10951E+08
0.11302E+08
0.11160E+08
0.11256E+08
0.10765E+08
0.11413E+08
0.10049E+08
0.11413E+08
0.10437E+08
0.12054E+08
0.11079E+08
0.11256E+08
0.11193E+08
0.11114E+08
0.11219E+08
0.11079E+08
0.11253E+08
0.11046E+08
0.10911E+08
0.11393E+08
0.11106E+08
0.11172E+08
0.11231E+08
0.11053E+08
0.11229E+08
0.11056E+08
</weights>
</event>
<event>
      6  10001  1.11453E+07  8.94427E-01 -1.00000E+00  6.01570E-01
      21    -1     0     0   502   501  0.000000000E+00  0.000000000E+00  2.210565538E+01  2.210565538E+01  0.000000000E+00  0.00000E+00  9.000E+00
       4    -1     0     0   501     0  0.000000000E+00  0.000000000E+00 -8.996164697E-02  8.996164697E-02  0.000000000E+00  0.00000E+00  9.000E+00
      23     2     1     2     0     0  3.762879067E-01 -4.996080665E-02  1.075693885E+01  1.093046500E+01  1.902430820E+00  0.00000E+00  9.000E+00
      11     1     3     3     0     0  1.039005561E+00 -1.942743574E-01  3.921457042E+00  4.061416092E+00  5.110000000E-04  0.00000E+00  9.000E+00
     -11     1     3     3     0     0 -6.627176541E-01  1.443135507E-01  6.835481807E+00  6.869048907E+00  5.110000000E-04  0.00000E+00  9.000E+00
       4     1     1     2   502     0 -3.762879067E-01  4.996080665E-02  1.125875489E+01  1.126515203E+01  0.000000000E+00  0.00000E+00  9.000E+00
#rwgt            1          19   379878.82799068262                3    17646395           0
<weights>
0.11145E+08
0.16171E+08
0.64939E+07
0.11682E+08
0.10017E+08
0.14374E+08
0.59211E+07
0.11135E+08
0.11157E+08
0.10689E+08
0.10613E+08
0.10906E+08
0.10900E+08
0.10681E+08
0.10633E+08
0.11250E+08
0.11312E+08
0.11660E+08
0.11726E+08
0.11708E+08
0.11621E+08
0.11739E+08
0.11729E+08
0.11650E+08
0.11365E+08
0.11357E+08
0.11562E+08
0.11647E+08
0.11539E+08
0.11737E+08
0.11750E+08
0.11250E+08
0.11222E+08
0.11119E+08
0.11219E+08
0.11175E+08
0.11143E+08
0.11376E+08
0.10836E+08
0.11229E+08
0.11073E+08
0.11215E+08
0.11073E+08
0.11708E+08
0.10637E+08
</weights>
</event>
<event>
      6  10001 -1.11453E+07  8.94427E-01 -1.00000E+00  2.01854E-01
      -2    -1     0     0     0   502  0.000000000E+00  0.000000000E+00  1.123891288E-02  1.123891288E-02  0.000000000E+00  0.00000E+00  9.000E+00
       2    -1     0     0   501     0  0.000000000E+00  0.000000000E+00 -7.174365363E+01  7.174365363E+01  0.000000000E+00  0.00000E+00  9.000E+00
      23     2     1     2     0     0 -2.153596455E-01  1.304511907E-01 -5.050967745E+01  5.053066171E+01  1.434175572E+00  0.00000E+00  9.000E+00
      11     1     3     3     0     0 -3.952780448E-01  5.196027427E-01 -1.142842806E+01  1.144706076E+01  5.110000000E-04  0.00000E+00  9.000E+00
     -11     1     3     3     0     0  1.799183993E-01 -3.891515519E-01 -3.908124939E+01  3.908360095E+01  5.110000000E-04  0.00000E+00  9.000E+00
      21     1     1     2   501   502  2.153596455E-01 -1.304511907E-01 -2.122273727E+01  2.122423084E+01  0.000000000E+00  0.00000E+00  9.000E+00
#rwgt            1           8  -232245.28237348513                3    17652476           0
<weights>
-.11145E+08
-.12824E+08
-.93421E+07
-.15586E+08
-.74853E+07
-.91702E+07
-.13910E+08
-.11169E+08
-.11122E+08
-.11121E+08
-.11149E+08
-.11161E+08
-.11090E+08
-.11146E+08
-.11149E+08
-.11140E+08
-.11120E+08
-.11068E+08
-.11223E+08
-.11233E+08
-.11061E+08
-.11138E+08
-.11130E+08
-.11234E+08
-.11048E+08
-.11077E+08
-.11174E+08
-.11258E+08
-.10945E+08
-.11144E+08
-.11122E+08
-.11136E+08
-.11150E+08
-.11075E+08
-.11236E+08
-.11129E+08
-.11157E+08
-.11082E+08
-.11221E+08
-.11087E+08
-.11192E+08
-.11200E+08
-.11087E+08
-.11146E+08
-.11139E+08
</weights>
</event>
<event>
      7  10001  1.11453E+07  8.94427E-01 -1.00000E+00  6.07649E-01
       1    -1     0     0   502     0  0.000000000E+00  0.000000000E+00  1.316915513E+01  1.316915513E+01  0.000000000E+00  0.00000E+00  9.000E+00
       1    -1     0     0   501     0  0.000000000E+00  0.000000000E+00 -2.371455657E+00  2.371455657E+00  0.000000000E+00  0.00000E+00  9.000E+00
      23     2     1     2     0     0 -8.134838972E-01  9.370607718E-01  1.157579466E+01  1.169206916E+01  1.079639010E+00  0.00000E+00  9.000E+00
      11     1     3     3     0     0 -5.487070608E-01  2.450201420E-01  8.754368734E+00  8.774969316E+00  5.110000000E-04  0.00000E+00  9.000E+00
     -11     1     3     3     0     0 -2.647768364E-01  6.920406298E-01  2.821425923E+00  2.917099845E+00  5.110000000E-04  0.00000E+00  9.000E+00
       1     1     1     2   502     0  8.770331987E-02 -1.058583804E+00 -2.089944754E+00  2.344389178E+00  0.000000000E+00  0.00000E+00  9.000E+00
       1     1     1     2   501     0  7.257805774E-01  1.215230318E-01  1.311849569E+00  1.504152447E+00  0.000000000E+00  0.00000E+00  9.000E+00
#rwgt            2         221   6260.1146550704398                3    17655847           0
<weights>
0.11145E+08
0.10975E+08
0.11191E+08
0.13339E+08
0.89665E+07
0.91702E+07
0.13910E+08
0.11100E+08
0.11190E+08
0.10870E+08
0.10851E+08
0.10958E+08
0.11044E+08
0.10883E+08
0.10866E+08
0.11225E+08
0.11181E+08
0.11489E+08
0.11343E+08
0.11320E+08
0.11479E+08
0.11446E+08
0.11473E+08
0.11314E+08
0.11337E+08
0.11381E+08
0.11059E+08
0.11369E+08
0.11338E+08
0.11422E+08
0.11461E+08
0.11157E+08
0.11227E+08
0.11209E+08
0.11090E+08
0.11095E+08
0.11217E+08
0.11102E+08
0.11109E+08
0.11145E+08
0.11143E+08
0.11204E+08
0.11084E+08
0.11455E+08
0.10860E+08
</weights>
</event>
<event>
      6  10001 -1.11453E+07  8.94427E-01 -1.00000E+00  3.66978E-01
      21    -1     0     0   502   501  0.000000000E+00  0.000000000E+00  2.474621759E-02  2.474621759E-02  0.000000000E+00  0.00000E+00  9.000E+00
       2    -1     0     0   501     0  0.000000000E+00  0.000000000E+00 -7.446938313E+01  7.446938313E+01  0.000000000E+00  0.00000E+00  9.000E+00
      23     2     1     2     0     0 -8.465731811E-01  2.720040845E-02 -2.837446408E+01  2.841617094E+01  1.284964267E+00  0.00000E+00  9.000E+00
      11     1     3     3     0     0 -4.725574031E-01  6.424724050E-01 -1.253194148E+01  1.255729425E+01  5.110000000E-04  0.00000E+00  9.000E+00
     -11     1     3     3     0     0 -3.740157780E-01 -6.152719965E-01 -1.584252260E+01  1.585887670E+01  5.110000000E-04  0.00000E+00  9.000E+00
       2     1     1     2   502     0  8.465731811E-01 -2.720040845E-02 -4.607017283E+01  4.607795841E+01  0.000000000E+00  0.00000E+00  9.000E+00
#rwgt            1          17  -6190079.8930037525                3    17657675           0
<weights>
-.11145E+08
-.12812E+08
-.93567E+07
-.15571E+08
-.74971E+07
-.91702E+07
-.13910E+08
-.11168E+08
-.11122E+08
-.11122E+08
-.11150E+08
-.11163E+08
-.11088E+08
-.11146E+08
-.11149E+08
-.11141E+08
-.11118E+08
-.11066E+08
-.11225E+08
-.11235E+08
-.11058E+08
-.11138E+08
-.11130E+08
-.11237E+08
-.11044E+08
-.11074E+08
-.11176E+08
-.11260E+08
-.10941E+08
-.11145E+08
-.11121E+08
-.11137E+08
-.11149E+08
-.11072E+08
-.11239E+08
-.11128E+08
-.11158E+08
-.11085E+08
-.11217E+08
-.11087E+08
-.11192E+08
-.11201E+08
-.11085E+08
-.11145E+08
-.11140E+08
</weights>
</event>
<event>
      6  10001  1.11453E+07  8.94427E-01 -1.00000E+00  5.87385E-01
      -4    -1     0     0     0   502  0.000000000E+00  0.000000000E+00  3.042216926E-02  3.042216926E-02  0.000000000E+00  0.00000E+00  9.000E+00
      21    -1     0     0   502   501  0.000000000E+00  0.000000000E+00 -6.085475791E+01  6.085475791E+01  0.000000000E+00  0.00000E+00  9.000E+00
      23     2     1     2     0     0  4.521292295E-02 -2.962190061E-01 -5.931282784E+01  5.934425632E+01  1.907726787E+00  0.00000E+00  9.000E+00
      11     1     3     3     0     0  6.373804095E-01 -3.094359216E-01 -5.274884768E+01  5.275360591E+01  5.110000000E-04  0.00000E+00  9.000E+00
     -11     1     3     3     0     0 -5.921674865E-01  1.321691548E-02 -6.563980160E+00  6.590650410E+00  5.110000000E-04  0.00000E+00  9.000E+00
      -4     1     1     2     0   501 -4.521292295E-02  2.962190061E-01 -1.511507900E+00  1.540923762E+00  0.000000000E+00  0.00000E+00  9.000E+00
#rwgt            1           3   57504.008524713689                3    17659500           0
<weights>
0.11145E+08
0.12965E+08
0.91810E+07
0.12313E+08
0.96128E+07
0.11505E+08
0.10326E+08
0.11346E+08
0.10948E+08
0.10624E+08
0.10821E+08
0.10844E+08
0.11025E+08
0.10759E+08
0.10803E+08
0.11246E+08
0.11128E+08
0.11454E+08
0.11502E+08
0.11491E+08
0.11436E+08
0.11462E+08
0.11565E+08
0.11185E+08
0.11572E+08
0.11444E+08
0.10997E+08
0.11402E+08
0.11252E+08
0.11343E+08
0.11487E+08
0.11049E+08
0.11350E+08
0.11206E+08
0.11090E+08
0.11436E+08
0.10888E+08
0.10473E+08
0.11805E+08
0.11081E+08
0.11204E+08
0.11159E+08
0.11132E+08
0.11566E+08
0.10733E+08
</weights>
</event>
<event>
      6  10001 -1.11453E+07  8.94427E-01 -1.00000E+00  3.29771E-01
      21    -1     0     0   502   501  0.000000000E+00  0.000000000E+00  7.914774619E-03  7.914774619E-03  0.000000000E+00  0.00000E+00  9.000E+00
       2    -1     0     0   501     0  0.000000000E+00  0.000000000E+00 -4.212990456E+02  4.212990456E+02  0.000000000E+00  0.00000E+00  9.000E+00
      23     2     1     2     0     0  1.141257475E-01  3.877502419E-01 -4.143954289E+02  4.143994225E+02  1.773829412E+00  0.00000E+00  9.000E+00
      11     1     3     3     0     0  5.432490179E-01  9.518137324E-01 -2.765576475E+02  2.765598189E+02  5.110000000E-04  0.00000E+00  9.000E+00
     -11     1     3     3     0     0 -4.291232704E-01 -5.640634905E-01 -1.378377814E+02  1.378396035E+02  5.110000000E-04  0.00000E+00  9.000E+00
       2     1     1     2   502     0 -1.141257475E-01 -3.877502419E-01 -6.895701952E+00  6.907537937E+00  0.000000000E+00  0.00000E+00  9.000E+00
#rwgt            1          17  -24288045.291207772                3    17678804           0
<weights>
-.11145E+08
-.11864E+08
-.10255E+08
-.14419E+08
-.82166E+07
-.91702E+07
-.13910E+08
-.11129E+08
-.11161E+08
-.11166E+08
-.11153E+08
-.11000E+08
-.11311E+08
-.11158E+08
-.11155E+08
-.11304E+08
-.10906E+08
-.11441E+08
-.10716E+08
-.10657E+08
-.11475E+08
-.11107E+08
-.11169E+08
-.11064E+08
-.11185E+08
-.11309E+08
-.11040E+08
-.10787E+08
-.11529E+08
-.11072E+08
-.11182E+08
-.11022E+08
-.11265E+08
-.11474E+08
-.10738E+08
-.11104E+08
-.11182E+08
-.11152E+08
-.11144E+08
-.11241E+08
-.11059E+08
-.11137E+08
-.11153E+08
-.11130E+08
-.11160E+08
</weights>
</event>
<event>
      7  10001  1.11453E+07  1.44046E+00 -1.00000E+00  4.39159E-01
       2    -1     0     0   501     0  0.000000000E+00  0.000000000E+00  5.384567138E+00  5.384567138E+00  0.000000000E+00  0.00000E+00  9.000E+00
      21    -1     0     0   502   501  0.000000000E+00  0.000000000E+00 -3.107341661E-01  3.107341661E-01  0.000000000E+00  0.00000E+00  9.000E+00
      23     2     1     2     0     0  3.068442053E-01  8.465650116E-02  4.759702018E+00  5.019275374E+00  1.561102779E+00  0.00000E+00  9.000E+00
      11     1     3     3     0     0  1.658120252E-01 -3.364309561E-01  4.477357690E+00  4.493040347E+00  5.110000000E-04  0.00000E+00  9.000E+00
     -11     1     3     3     0     0  1.410321800E-01  4.210874573E-01  2.823443281E-01  5.262350266E-01  5.110000000E-04  0.00000E+00  9.000E+00
       2     1     1     2   511     0 -9.748363571E-03 -4.960870721E-02  3.685149930E-01  3.719668728E-01  0.000000000E+00  0.00000E+00  9.000E+00
      21     1     1     2   502   511 -2.970958417E-01 -3.504779395E-02 -5.438403879E-02  3.040590579E-01  5.270002168E-08  0.00000E+00  9.000E+00
#rwgt            1          24   1227329.4605770342                3    17680477           0
<weights>
0.11145E+08
0.14950E+08
0.74395E+07
0.12430E+08
0.93321E+07
0.12870E+08
0.82298E+07
0.11149E+08
0.11141E+08
0.10714E+08
0.10649E+08
0.10915E+08
0.10921E+08
0.10711E+08
0.10668E+08
0.11249E+08
0.11289E+08
0.11626E+08
0.11678E+08
0.11663E+08
0.11589E+08
0.11695E+08
0.11690E+08
0.11590E+08
0.11362E+08
0.11346E+08
0.11462E+08
0.11608E+08
0.11507E+08
0.11690E+08
0.11707E+08
0.11239E+08
0.11220E+08
0.11122E+08
0.11212E+08
0.11185E+08
0.11130E+08
0.11328E+08
0.10878E+08
0.11218E+08
0.11083E+08
0.11209E+08
0.11079E+08
0.11671E+08
0.10669E+08
</weights>
</event>
<event>
      6  10001 -1.11453E+07  8.94427E-01 -1.00000E+00  5.85513E-01
      21    -1     0     0   502   501  0.000000000E+00  0.000000000E+00  1.621484731E-01  1.621484731E-01  0.000000000E+00  0.00000E+00  9.000E+00
       4    -1     0     0   501     0  0.000000000E+00  0.000000000E+00 -7.651690702E+00  7.651690702E+00  0.000000000E+00  0.00000E+00  9.000E+00
      23     2     1     2     0     0 -3.933054285E-01  1.020338997E-01 -7.138437588E+00  7.276834011E+00  1.352746080E+00  0.00000E+00  9.000E+00
      11     1     3     3     0     0 -8.275118290E-01 -1.237971397E-01 -5.607113140E+00  5.669199201E+00  5.110000000E-04  0.00000E+00  9.000E+00
     -11     1     3     3     0     0  4.342064005E-01  2.258310394E-01 -1.531324448E+00  1.607634810E+00  5.110000000E-04  0.00000E+00  9.000E+00
       4     1     1     2   502     0  3.933054285E-01 -1.020338997E-01 -3.511046407E-01  5.370051634E-01  0.000000000E+00  0.00000E+00  9.000E+00
#rwgt            1          19  -700048.72458438214                3    17731151           0
<weights>
-.11145E+08
-.65692E+07
-.14688E+08
-.16112E+08
-.73614E+07
-.41132E+07
-.21673E+08
-.11200E+08
-.11093E+08
-.11102E+08
-.11188E+08
-.11079E+08
-.11205E+08
-.11162E+08
-.11187E+08
-.11173E+08
-.11030E+08
-.11088E+08
-.11080E+08
-.11074E+08
-.11095E+08
-.11066E+08
-.11098E+08
-.11054E+08
-.11181E+08
-.11102E+08
-.11126E+08
-.11040E+08
-.11083E+08
-.11020E+08
-.11074E+08
-.11076E+08
-.11194E+08
-.11169E+08
-.11110E+08
-.11226E+08
-.11070E+08
-.10817E+08
-.11511E+08
-.11054E+08
-.11226E+08
-.11133E+08
-.11158E+08
-.11117E+08
-.11156E+08
</weights>
</event>
<event>
      7  10001  1.11453E+07  2.23271E+00 -1.00000E+00  3.34692E-01
      -2    -1     0     0     0   502  0.000000000E+00  0.000000000E+00  2.218026914E+00  2.218026914E+00  0.000000000E+00  0.00000E+00  9.000E+00
      21    -1     0     0   502   501  0.000000000E+00  0.000000000E+00 -2.710877507E+00  2.710877507E+00  0.000000000E+00  0.00000E+00  9.000E+00
      23     2     1     2     0     0 -3.521206437E-01  2.312822859E-01  1.926118190E+00  2.432726840E+00  1.425043211E+00  0.00000E+00  9.000E+00
      11     1     3     3     0     0  2.442605151E-01 -9.935931922E-02  1.690983035E+00  1.711420275E+00  5.110000000E-04  0.00000E+00  9.000E+00
     -11     1     3     3     0     0 -5.963811588E-01  3.306416051E-01  2.351351548E-01  7.213065643E-01  5.110000000E-04  0.00000E+00  9.000E+00
      -2     1     1     2     0   511  5.342085479E-02 -6.349759120E-02 -3.902050178E-02  9.169695400E-02  0.000000000E+00  0.00000E+00  9.000E+00
      21     1     1     2   511   501  2.986997889E-01 -1.677846947E-01 -2.379948281E+00  2.404480628E+00  6.664001875E-08  0.00000E+00  9.000E+00
#rwgt            1           7   2926623.9280284722                3    17737510           0
<weights>
0.11145E+08
0.13058E+08
0.91384E+07
0.12689E+08
0.93295E+07
0.11290E+08
0.10656E+08
0.11205E+08
0.11080E+08
0.10733E+08
0.10711E+08
0.10916E+08
0.10962E+08
0.10749E+08
0.10723E+08
0.11250E+08
0.11247E+08
0.11576E+08
0.11586E+08
0.11582E+08
0.11541E+08
0.11619E+08
0.11635E+08
0.11424E+08
0.11415E+08
0.11375E+08
0.11153E+08
0.11550E+08
0.11430E+08
0.11596E+08
0.11632E+08
0.11208E+08
0.11227E+08
0.11129E+08
0.11194E+08
0.11245E+08
0.11067E+08
0.11172E+08
0.11012E+08
0.11192E+08
0.11106E+08
0.11192E+08
0.11097E+08
0.11616E+08
0.10714E+08
</weights>
</event>
<event>
      6  10001 -1.11453E+07  8.94427E-01 -1.00000E+00  1.72634E-01
      21    -1     0     0   502   501  0.000000000E+00  0.000000000E+00  6.605273085E-03  6.605273085E-03  0.000000000E+00  0.00000E+00  9.000E+00
       1    -1     0     0   501     0  0.000000000E+00  0.000000000E+00 -1.623245640E+02  1.623245640E+02  0.000000000E+00  0.00000E+00  9.000E+00
      23     2     1     2     0     0 -3.207025012E-01  7.336589377E-02 -1.403004381E+02  1.403111909E+02  1.705617272E+00  0.00000E+00  9.000E+00
      11     1     3     3     0     0 -3.903077575E-01  8.611262159E-01 -7.847832986E+01  7.848402472E+01  5.110000000E-04  0.00000E+00  9.000E+00
     -11     1     3     3     0     0  6.960525630E-02 -7.877603221E-01 -6.182210825E+01  6.182716620E+01  5.110000000E-04  0.00000E+00  9.000E+00
       1     1     1     2   502     0  3.207025012E-01 -7.336589377E-02 -2.201752059E+01  2.201997833E+01  0.000000000E+00  0.00000E+00  9.000E+00
#rwgt            1          16  -1134054.1858551791                3    17779678           0
<weights>
-.11145E+08
-.11976E+08
-.10166E+08
-.14555E+08
-.81458E+07
-.91702E+07
-.13910E+08
-.11216E+08
-.11076E+08
-.11182E+08
-.11211E+08
-.11268E+08
-.10995E+08
-.11197E+08
-.11202E+08
-.10397E+08
-.12020E+08
-.10637E+08
-.11596E+08
-.11657E+08
-.10577E+08
-.11138E+08
-.11016E+08
-.11339E+08
-.10855E+08
-.10879E+08
-.11271E+08
-.11396E+08
-.10625E+08
-.11161E+08
-.11041E+08
-.11099E+08
-.11172E+08
-.10654E+08
-.11635E+08
-.11113E+08
-.11163E+08
-.11151E+08
-.11150E+08
-.11225E+08
-.11064E+08
-.11219E+08
-.11066E+08
-.11085E+08
-.11199E+08
</weights>
</event>
<event>
      6  10001 -1.11453E+07  8.94427E-01 -1.00000E+00  4.97126E-01
      21    -1     0     0   502   501  0.000000000E+00  0.000000000E+00  1.788038382E-02  1.788038382E-02  0.000000000E+00  0.00000E+00  9.000E+00
       2    -1     0     0   501     0  0.000000000E+00  0.000000000E+00 -9.728320137E+01  9.728320137E+01  0.000000000E+00  0.00000E+00  9.000E+00
      23     2     1     2     0     0  7.848735330E-01 -1.835033250E-02 -6.304544506E+01  6.307220109E+01  1.660736023E+00  0.00000E+00  9.000E+00
      11     1     3     3     0     0 -4.776678519E-02  6.873019384E-01 -1.725218402E+01  1.726593523E+01  5.110000000E-04  0.00000E+00  9.000E+00
     -11     1     3     3     0     0  8.326403182E-01 -7.056522709E-01 -4.579326105E+01  4.580626587E+01  5.110000000E-04  0.00000E+00  9.000E+00
       2     1     1     2   502     0 -7.848735330E-01  1.835033250E-02 -3.421987592E+01  3.422888066E+01  0.000000000E+00  0.00000E+00  9.000E+00
#rwgt            1          17  -5142768.1873614499                3    17780613           0
<weights>
-.11145E+08
-.12527E+08
-.96178E+07
-.15225E+08
-.77063E+07
-.91702E+07
-.13910E+08
-.11155E+08
-.11135E+08
-.11147E+08
-.11164E+08
-.11159E+08
-.11115E+08
-.11164E+08
-.11165E+08
-.11179E+08
-.11059E+08
-.11085E+08
-.11161E+08
-.11167E+08
-.11080E+08
-.11120E+08
-.11117E+08
-.11231E+08
-.11024E+08
-.11067E+08
-.11179E+08
-.11211E+08
-.10981E+08
-.11129E+08
-.11113E+08
-.11125E+08
-.11156E+08
-.11094E+08
-.11207E+08
-.11134E+08
-.11151E+08
-.11119E+08
-.11181E+08
-.11099E+08
-.11181E+08
-.11193E+08
-.11094E+08
-.11126E+08
-.11159E+08
</weights>
</event>
<event>
      7  10001  1.11453E+07  1.33820E+00 -1.00000E+00  4.61683E-01
       3    -1     0     0   501     0  0.000000000E+00  0.000000000E+00  4.709921735E+01  4.709921735E+01  0.000000000E+00  0.00000E+00  9.000E+00
      21    -1     0     0   511   501  0.000000000E+00  0.000000000E+00 -1.412566465E+00  1.412566465E+00  0.000000000E+00  0.00000E+00  9.000E+00
      23     2     1     2     0     0  1.052023491E+00  1.819213764E+00  1.098315456E+01  1.137118371E+01  2.063454117E+00  0.00000E+00  9.000E+00
      11     1     3     3     0     0 -4.179974581E-01 -3.520208591E-02  6.736335682E-01  7.935638016E-01  5.110000000E-04  0.00000E+00  9.000E+00
     -11     1     3     3     0     0  1.470020949E+00  1.854415850E+00  1.030952099E+01  1.057761991E+01  5.110000000E-04  0.00000E+00  9.000E+00
       3     1     1     2   502     0 -1.445123490E+00 -5.400559170E-01  3.553279636E+01  3.556627138E+01  0.000000000E+00  0.00000E+00  9.000E+00
      21     1     1     2   511   502  3.930999989E-01 -1.279157847E+00 -8.293000300E-01  1.574328729E+00  8.024520885E-08  0.00000E+00  9.000E+00
#rwgt            1          26   72821.503309374879                3    17783242           0
<weights>
0.11145E+08
0.13115E+08
0.90458E+07
0.13002E+08
0.91077E+07
0.11133E+08
0.10897E+08
0.11164E+08
0.11126E+08
0.10786E+08
0.10757E+08
0.10946E+08
0.10977E+08
0.10797E+08
0.10770E+08
0.11234E+08
0.11237E+08
0.11518E+08
0.11563E+08
0.11550E+08
0.11490E+08
0.11568E+08
0.11578E+08
0.11473E+08
0.11339E+08
0.11306E+08
0.11385E+08
0.11494E+08
0.11418E+08
0.11551E+08
0.11580E+08
0.11202E+08
0.11218E+08
0.11132E+08
0.11189E+08
0.11201E+08
0.11111E+08
0.11200E+08
0.11015E+08
0.11184E+08
0.11112E+08
0.11193E+08
0.11095E+08
0.11562E+08
0.10764E+08
</weights>
</event>
<event>
      7  10001  1.11453E+07  1.13809E+00 -1.00000E+00  5.14942E-01
      -2    -1     0     0     0   502  0.000000000E+00  0.000000000E+00  2.242125962E-01  2.242125962E-01  0.000000000E+00  0.00000E+00  9.000E+00
       2    -1     0     0   501     0  0.000000000E+00  0.000000000E+00 -1.824964633E+02  1.824964633E+02  0.000000000E+00  0.00000E+00  9.000E+00
      23     2     1     2     0     0 -1.090936978E+00  1.375020638E+00 -1.703594320E+02  1.706256217E+02  9.364073368E+00  0.00000E+00  9.000E+00
      11     1     3     3     0     0 -3.268871302E+00  2.869947458E+00 -3.937454335E+01  3.961409827E+01  5.110000000E-04  0.00000E+00  9.000E+00
     -11     1     3     3     0     0  2.177934324E+00 -1.494926820E+00 -1.309848886E+02  1.310115234E+02  5.110000000E-04  0.00000E+00  9.000E+00
      21     1     1     2   511   502  4.409295894E-02 -6.604594894E-01 -2.130331971E+00  2.230799236E+00  1.192092896E-07  0.00000E+00  9.000E+00
      21     1     1     2   501   511  1.046844019E+00 -7.145611485E-01 -9.782486718E+00  9.864254986E+00  1.192092896E-07  0.00000E+00  9.000E+00
#rwgt            1           8   780504.57105303823                3    17791114           0
<weights>
0.11182E+08
0.11708E+08
0.10681E+08
0.11403E+08
0.10628E+08
0.11207E+08
0.10875E+08
0.11178E+08
0.11184E+08
0.11188E+08
0.11200E+08
0.11185E+08
0.11165E+08
0.11197E+08
0.11197E+08
0.11312E+08
0.10966E+08
0.11174E+08
0.11137E+08
0.11138E+08
0.11170E+08
0.11155E+08
0.11174E+08
0.11274E+08
0.11051E+08
0.11097E+08
0.11220E+08
0.11206E+08
0.11077E+08
0.11166E+08
0.11165E+08
0.11128E+08
0.11227E+08
0.11152E+08
0.11206E+08
0.11189E+08
0.11169E+08
0.11193E+08
0.11169E+08
0.11160E+08
0.11195E+08
0.11228E+08
0.11132E+08
0.11164E+08
0.11196E+08
</weights>
</event>
<event>
      7  10001  1.11453E+07  5.56306E+00 -1.00000E+00  2.29436E-01
      21    -1     0     0   502   501  0.000000000E+00  0.000000000E+00  3.382165291E-01  3.382165291E-01  0.000000000E+00  0.00000E+00  9.000E+00
       4    -1     0     0   501     0  0.000000000E+00  0.000000000E+00 -3.131375420E+01  3.131375420E+01  0.000000000E+00  0.00000E+00  9.000E+00
      23     2     1     2     0     0 -1.154511556E+00 -8.029294989E-01 -2.138805751E+01  2.146692741E+01  1.184219419E+00  0.00000E+00  9.000E+00
      11     1     3     3     0     0 -1.283161327E+00 -6.088509656E-01 -1.331927655E+01  1.339478744E+01  5.110000000E-04  0.00000E+00  9.000E+00
     -11     1     3     3     0     0  1.286497711E-01 -1.940785333E-01 -8.068780961E+00  8.072139970E+00  5.110000000E-04  0.00000E+00  9.000E+00
       4     1     1     2   512     0  3.527521942E-01 -5.459529192E-02 -8.715177418E+00  8.722484290E+00  0.000000000E+00  0.00000E+00  9.000E+00
      21     1     1     2   502   512  8.017593619E-01  8.575247908E-01 -8.723027428E-01  1.462559030E+00  1.584015163E-07  0.00000E+00  9.000E+00
#rwgt            2         195   3793566.2630406483                3    17794766           0
<weights>
0.11145E+08
0.11452E+08
0.10532E+08
0.13918E+08
0.84384E+07
0.91702E+07
0.13910E+08
0.11244E+08
0.11047E+08
0.10882E+08
0.10967E+08
0.10955E+08
0.11126E+08
0.10948E+08
0.10968E+08
0.11193E+08
0.11141E+08
0.11307E+08
0.11327E+08
0.11321E+08
0.11299E+08
0.11310E+08
0.11361E+08
0.11176E+08
0.11355E+08
0.11318E+08
0.11054E+08
0.11293E+08
0.11186E+08
0.11249E+08
0.11322E+08
0.11099E+08
0.11246E+08
0.11167E+08
0.11127E+08
0.11314E+08
0.10994E+08
0.10795E+08
0.11472E+08
0.11088E+08
0.11199E+08
0.11134E+08
0.11158E+08
0.11364E+08
0.10930E+08
</weights>
</event>
<event>
      6  10001 -1.11453E+07  8.94427E-01 -1.00000E+00  3.94486E-01
      21    -1     0     0   502   501  0.000000000E+00  0.000000000E+00  4.083789622E-03  4.083789622E-03  0.000000000E+00  0.00000E+00  9.000E+00
       2    -1     0     0   501     0  0.000000000E+00  0.000000000E+00 -7.220857129E+02  7.220857129E+02  0.000000000E+00  0.00000E+00  9.000E+00
      23     2     1     2     0     0 -2.023887645E-01  4.344218710E-01 -6.983287020E+02  6.983320352E+02  2.103734470E+00  0.00000E+00  9.000E+00
      11     1     3     3     0     0  7.140038068E-01  1.862820039E-01 -5.389738875E+02  5.389743927E+02  5.110000000E-04  0.00000E+00  9.000E+00
     -11     1     3     3     0     0 -9.163925713E-01  2.481398671E-01 -1.593548144E+02  1.593576425E+02  5.110000000E-04  0.00000E+00  9.000E+00
       2     1     1     2   502     0  2.023887645E-01 -4.344218710E-01 -2.375292716E+01  2.375776151E+01  0.000000000E+00  0.00000E+00  9.000E+00
#rwgt            1          17  -54078167.401951537                3    17800774           0
<weights>
-.11145E+08
-.11727E+08
-.10382E+08
-.14253E+08
-.83189E+07
-.91702E+07
-.13910E+08
-.11134E+08
-.11156E+08
-.11163E+08
-.11141E+08
-.10929E+08
-.11386E+08
-.11153E+08
-.11147E+08
-.11050E+08
-.11273E+08
-.11571E+08
-.10567E+08
-.10476E+08
-.11628E+08
-.11118E+08
-.11169E+08
-.10950E+08
-.11312E+08
-.11536E+08
-.10910E+08
-.10585E+08
-.11797E+08
-.11050E+08
-.11209E+08
-.11102E+08
-.11186E+08
-.11709E+08
-.10475E+08
-.11061E+08
-.11223E+08
-.11124E+08
-.11177E+08
-.11311E+08
-.10999E+08
-.11120E+08
-.11172E+08
-.11138E+08
-.11153E+08
</weights>
</event>
<event>
      6  10001 -1.11453E+07  8.94427E-01 -1.00000E+00  4.27790E-01
      -4    -1     0     0     0   502  0.000000000E+00  0.000000000E+00  2.161764343E+00  2.161764343E+00  0.000000000E+00  0.00000E+00  9.000E+00
      21    -1     0     0   502   501  0.000000000E+00  0.000000000E+00 -3.036031231E-01  3.036031231E-01  0.000000000E+00  0.00000E+00  9.000E+00
      23     2     1     2     0     0  4.583496910E-03  2.533030672E-01  1.567594109E+00  2.079864291E+00  1.343242616E+00  0.00000E+00  9.000E+00
      11     1     3     3     0     0 -1.700014780E-01 -1.361171509E-01  1.633575930E+00  1.648028811E+00  5.110000000E-04  0.00000E+00  9.000E+00
     -11     1     3     3     0     0  1.745849749E-01  3.894202181E-01 -6.598182110E-02  4.318354798E-01  5.110000000E-04  0.00000E+00  9.000E+00
      -4     1     1     2     0   501 -4.583496910E-03 -2.533030672E-01  2.905671108E-01  3.855031753E-01  0.000000000E+00  0.00000E+00  9.000E+00
#rwgt            1           3  -516580.17996787478                3    17800986           0
<weights>
-.11145E+08
-.10490E+08
-.11252E+08
-.15784E+08
-.74372E+07
-.73153E+07
-.16757E+08
-.11203E+08
-.11085E+08
-.10992E+08
-.11036E+08
-.11029E+08
-.11130E+08
-.11035E+08
-.11041E+08
-.11202E+08
-.11097E+08
-.11248E+08
-.11229E+08
-.11227E+08
-.11240E+08
-.11243E+08
-.11266E+08
-.11154E+08
-.11260E+08
-.11198E+08
-.11073E+08
-.11205E+08
-.11192E+08
-.11207E+08
-.11252E+08
-.11125E+08
-.11197E+08
-.11150E+08
-.11143E+08
-.11233E+08
-.11066E+08
-.10944E+08
-.11310E+08
-.11100E+08
-.11185E+08
-.11152E+08
-.11138E+08
-.11273E+08
-.11019E+08
</weights>
</event>
<event>
      6  10001 -1.11453E+07  8.94427E-01 -1.00000E+00  5.69480E-01
      21    -1     0     0   502   501  0.000000000E+00  0.000000000E+00  1.492178416E-03  1.492178416E-03  0.000000000E+00  0.00000E+00  9.000E+00
       2    -1     0     0   501     0  0.000000000E+00  0.000000000E+00 -5.188454322E+02  5.188454322E+02  0.000000000E+00  0.00000E+00  9.000E+00
      23     2     1     2     0     0  3.483258648E-01  3.309213181E-01 -2.709551665E+02  2.709576853E+02  1.064941673E+00  0.00000E+00  9.000E+00
      11     1     3     3     0     0 -3.206825066E-01  3.303328548E-01 -7.797585351E+01  7.797721262E+01  5.110000000E-04  0.00000E+00  9.000E+00
     -11     1     3     3     0     0  6.690083714E-01  5.884632426E-04 -1.929793130E+02  1.929804726E+02  5.110000000E-04  0.00000E+00  9.000E+00
       2     1     1     2   502     0 -3.483258648E-01 -3.309213181E-01 -2.478887736E+02  2.478892392E+02  0.000000000E+00  0.00000E+00  9.000E+00
#rwgt            1          17  -8519490.0144491289                3    17817316           0
<weights>
-.11145E+08
-.10417E+08
-.11833E+08
-.12660E+08
-.94810E+07
-.91702E+07
-.13910E+08
-.11131E+08
-.11159E+08
-.11164E+08
-.11149E+08
-.10972E+08
-.11341E+08
-.11156E+08
-.11151E+08
-.11248E+08
-.10987E+08
-.11496E+08
-.10653E+08
-.10582E+08
-.11539E+08
-.11110E+08
-.11172E+08
-.11023E+08
-.11230E+08
-.11382E+08
-.10998E+08
-.10711E+08
-.11629E+08
-.11063E+08
-.11194E+08
-.11034E+08
-.11254E+08
-.11557E+08
-.10643E+08
-.11089E+08
-.11196E+08
-.11142E+08
-.11156E+08
-.11267E+08
-.11037E+08
-.11131E+08
-.11160E+08
-.11134E+08
-.11157E+08
</weights>
</event>
<event>
      7  10001  1.11453E+07  1.64548E+00 -1.00000E+00  3.94479E-01
      21    -1     0     0   502   501  0.000000000E+00  0.000000000E+00  1.081485221E-01  1.081485221E-01  0.000000000E+00  0.00000E+00  9.000E+00
       2    -1     0     0   501     0  0.000000000E+00  0.000000000E+00 -1.179738603E+02  1.179738603E+02  0.000000000E+00  0.00000E+00  9.000E+00
      23     2     1     2     0     0  4.162016208E-01 -7.325156208E-01 -1.120636767E+02  1.121179424E+02  3.384605747E+00  0.00000E+00  9.000E+00
      11     1     3     3     0     0  5.304353592E-02  1.476405158E-01 -2.199659215E-01  2.701788414E-01  5.110000000E-04  0.00000E+00  9.000E+00
     -11     1     3     3     0     0  3.631580848E-01 -8.801561366E-01 -1.118437108E+02  1.118477635E+02  5.110000000E-04  0.00000E+00  9.000E+00
       2     1     1     2   511     0  1.384427305E-01  6.202030498E-01 -4.496185690E+00  4.540870398E+00  0.000000000E+00  0.00000E+00  9.000E+00
      21     1     1     2   502   511 -5.546443513E-01  1.123125710E-01 -1.305849387E+00  1.423196083E+00  1.182743003E-07  0.00000E+00  9.000E+00
#rwgt            2         189   48818357.958150074                3    17817635           0
<weights>
0.11145E+08
0.11057E+08
0.11047E+08
0.13438E+08
0.88511E+07
0.91702E+07
0.13910E+08
0.11145E+08
0.11145E+08
0.11161E+08
0.11170E+08
0.11150E+08
0.11138E+08
0.11172E+08
0.11171E+08
0.11215E+08
0.11008E+08
0.11115E+08
0.11107E+08
0.11108E+08
0.11113E+08
0.11111E+08
0.11116E+08
0.11222E+08
0.11020E+08
0.11072E+08
0.11176E+08
0.11167E+08
0.11028E+08
0.11120E+08
0.11113E+08
0.11111E+08
0.11168E+08
0.11121E+08
0.11169E+08
0.11138E+08
0.11147E+08
0.11143E+08
0.11153E+08
0.11114E+08
0.11168E+08
0.11187E+08
0.11101E+08
0.11118E+08
0.11168E+08
</weights>
</event>
<event>
      7  10001  1.11453E+07  1.66303E+01 -1.00000E+00  1.73032E-01
       4    -1     0     0   501     0  0.000000000E+00  0.000000000E+00  7.470296367E+01  7.470296367E+01  0.000000000E+00  0.00000E+00  9.000E+00
      21    -1     0     0   502   501  0.000000000E+00  0.000000000E+00 -1.222123196E+00  1.222123196E+00  0.000000000E+00  0.00000E+00  9.000E+00
      23     2     1     2     0     0 -1.425499065E+00 -3.302294077E+00  3.693443771E+01  3.715514727E+01  1.847994931E+00  0.00000E+00  9.000E+00
      11     1     3     3     0     0 -1.702364873E+00 -1.716051562E+00  2.377378120E+01  2.389635018E+01  5.110000000E-04  0.00000E+00  9.000E+00
     -11     1     3     3     0     0  2.768658077E-01 -1.586242516E+00  1.316065652E+01  1.325879709E+01  5.110000000E-04  0.00000E+00  9.000E+00
       4     1     1     2   512     0  3.379121602E+00 -2.995520774E+00  2.556649298E+01  2.596222585E+01  0.000000000E+00  0.00000E+00  9.000E+00
      21     1     1     2   502   512 -1.953622537E+00  6.297814851E+00  1.097990978E+01  1.280771376E+01  1.072883606E-06  0.00000E+00  9.000E+00
#rwgt            2         308   511311.26525532210                3    17819406           0
<weights>
0.11145E+08
0.10941E+08
0.11062E+08
0.13297E+08
0.88638E+07
0.91702E+07
0.13910E+08
0.11198E+08
0.11090E+08
0.10853E+08
0.10859E+08
0.10971E+08
0.11036E+08
0.10877E+08
0.10868E+08
0.11224E+08
0.11184E+08
0.11423E+08
0.11436E+08
0.11431E+08
0.11402E+08
0.11448E+08
0.11473E+08
0.11316E+08
0.11338E+08
0.11289E+08
0.11160E+08
0.11392E+08
0.11326E+08
0.11420E+08
0.11460E+08
0.11170E+08
0.11214E+08
0.11139E+08
0.11170E+08
0.11232E+08
0.11074E+08
0.11077E+08
0.11141E+08
0.11152E+08
0.11140E+08
0.11175E+08
0.11115E+08
0.11460E+08
0.10854E+08
</weights>
</event>
<event>
      6  10001 -1.11453E+07  8.94427E-01 -1.00000E+00  3.99545E-01
       2    -1     0     0   501     0  0.000000000E+00  0.000000000E+00  9.544108535E+01  9.544108535E+01  0.000000000E+00  0.00000E+00  9.000E+00
      21    -1     0     0   502   501  0.000000000E+00  0.000000000E+00 -1.694549802E-02  1.694549802E-02  0.000000000E+00  0.00000E+00  9.000E+00
      23     2     1     2     0     0 -1.707533654E-01 -6.648278497E-01  8.335624615E+01  8.337063199E+01  1.388291467E+00  0.00000E+00  9.000E+00
      11     1     3     3     0     0  1.282206159E-01 -5.509130389E-01  7.922377346E+01  7.922579268E+01  5.110000000E-04  0.00000E+00  9.000E+00
     -11     1     3     3     0     0 -2.989739813E-01 -1.139148108E-01  4.132472696E+00  4.144839306E+00  5.110000000E-04  0.00000E+00  9.000E+00
       2     1     1     2   502     0  1.707533654E-01  6.648278497E-01  1.206789370E+01  1.208739886E+01  0.000000000E+00  0.00000E+00  9.000E+00
#rwgt            1          24  -11221519.033332253                3    17819505           0
<weights>
-.11145E+08
-.12947E+08
-.91001E+07
-.15743E+08
-.72917E+07
-.91659E+07
-.13909E+08
-.11175E+08
-.11116E+08
-.10853E+08
-.10850E+08
-.10974E+08
-.11027E+08
-.10874E+08
-.10860E+08
-.11222E+08
-.11192E+08
-.11427E+08
-.11456E+08
-.11446E+08
-.11406E+08
-.11459E+08
-.11476E+08
-.11371E+08
-.11314E+08
-.11271E+08
-.11307E+08
-.11397E+08
-.11343E+08
-.11436E+08
-.11471E+08
-.11175E+08
-.11212E+08
-.11139E+08
-.11173E+08
-.11211E+08
-.11097E+08
-.11108E+08
-.11118E+08
-.11156E+08
-.11137E+08
-.11180E+08
-.11109E+08
-.11466E+08
-.10848E+08
</weights>
</event>
<event>
      7  10001  1.11453E+07  8.94427E-01 -1.00000E+00  6.07649E-01
      21    -1     0     0   502   501  0.000000000E+00  0.000000000E+00  4.137369940E-02  4.137369940E-02  0.000000000E+00  0.00000E+00  9.000E+00
       2    -1     0     0   501     0  0.000000000E+00  0.000000000E+00 -1.319789362E+01  1.319789362E+01  0.000000000E+00  0.00000E+00  9.000E+00
      23     2     1     2     0     0 -3.538605153E-03 -2.149396181E-01 -9.707259347E+00  9.763250443E+00  1.021745376E+00  0.00000E+00  9.000E+00
      11     1     3     3     0     0  1.412778989E-01 -2.231947877E-01 -6.088160392E-01  6.636509540E-01  5.110000000E-04  0.00000E+00  9.000E+00
     -11     1     3     3     0     0 -1.448165040E-01  8.255169612E-03 -9.098443308E+00  9.099599489E+00  5.110000000E-04  0.00000E+00  9.000E+00
       2     1     1     2   511     0 -2.716151594E-03  1.317800292E-01 -3.259305579E-01  3.515737222E-01  0.000000000E+00  0.00000E+00  9.000E+00
      21     1     1     2   502   511  6.254756748E-03  8.315958896E-02 -3.123330016E+00  3.124443155E+00  4.214684851E-08  0.00000E+00  9.000E+00
#rwgt            2         189   117803560.98186280                3    17820729           0
<weights>
0.11143E+08
0.12038E+08
0.99884E+07
0.14631E+08
0.80033E+07
0.91683E+07
0.13907E+08
0.11179E+08
0.11103E+08
0.10928E+08
0.10955E+08
0.11059E+08
0.11005E+08
0.10954E+08
0.10958E+08
0.11100E+08
0.11296E+08
0.11255E+08
0.11439E+08
0.11441E+08
0.11240E+08
0.11341E+08
0.11361E+08
0.11263E+08
0.11279E+08
0.11279E+08
0.11077E+08
0.11419E+08
0.11076E+08
0.11323E+08
0.11325E+08
0.11145E+08
0.11200E+08
0.11099E+08
0.11222E+08
0.11095E+08
0.11202E+08
0.10999E+08
0.11221E+08
0.11107E+08
0.11171E+08
0.11209E+08
0.11073E+08
0.11354E+08
0.10944E+08
</weights>
</event>
<event>
      6  10001 -1.11453E+07  8.94427E-01 -1.00000E+00  5.87820E-01
      21    -1     0     0   502   501  0.000000000E+00  0.000000000E+00  8.162922780E-03  8.162922780E-03  0.000000000E+00  0.00000E+00  9.000E+00
      -2    -1     0     0     0   502  0.000000000E+00  0.000000000E+00 -1.089462647E+02  1.089462647E+02  0.000000000E+00  0.00000E+00  9.000E+00
      23     2     1     2     0     0  4.895559605E-01 -1.094827344E-01 -6.815205940E+01  6.816530034E+01  1.246322103E+00  0.00000E+00  9.000E+00
      11     1     3     3     0     0 -3.638247736E-01 -2.522102078E-01 -1.624785441E+01  1.625388420E+01  5.110000000E-04  0.00000E+00  9.000E+00
     -11     1     3     3     0     0  8.533807341E-01  1.427274734E-01 -5.190420499E+01  5.191141614E+01  5.110000000E-04  0.00000E+00  9.000E+00
      -2     1     1     2     0   501 -4.895559605E-01  1.094827344E-01 -4.078604233E+01  4.078912723E+01  0.000000000E+00  0.00000E+00  9.000E+00
#rwgt            1          14  -1291525.4211788580                3    17822310           0
<weights>
-.11145E+08
-.12147E+08
-.99816E+07
-.14763E+08
-.79978E+07
-.91702E+07
-.13910E+08
-.11158E+08
-.11131E+08
-.11184E+08
-.11214E+08
-.11100E+08
-.11179E+08
-.11225E+08
-.11221E+08
-.11054E+08
-.11189E+08
-.11118E+08
-.10971E+08
-.10945E+08
-.11138E+08
-.11054E+08
-.11035E+08
-.11140E+08
-.11046E+08
-.11102E+08
-.11132E+08
-.11067E+08
-.10985E+08
-.11047E+08
-.11059E+08
-.11143E+08
-.11117E+08
-.11290E+08
-.11001E+08
-.11070E+08
-.11199E+08
-.11089E+08
-.11231E+08
-.11096E+08
-.11176E+08
-.11276E+08
-.11004E+08
-.11064E+08
-.11210E+08
</weights>
</event>
<event>
      7  10001  1.11453E+07  5.15317E+00 -1.00000E+00  2.34719E-01
       2    -1     0     0   501     0  0.000000000E+00  0.000000000E+00  6.185652612E+02  6.185652612E+02  0.000000000E+00  0.00000E+00  9.000E+00
      21    -1     0     0   511   501  0.000000000E+00  0.000000000E+00 -2.007302014E+00  2.007302014E+00  0.000000000E+00  0.00000E+00  9.000E+00
      23     2     1     2     0     0  7.212287389E-03 -2.520638846E+00  5.488452774E+02  5.488662258E+02  4.079420065E+00  0.00000E+00  9.000E+00
      11     1     3     3     0     0  7.077422736E-01 -2.307967060E+00  5.315261537E+02  5.315316357E+02  5.110000000E-04  0.00000E+00  9.000E+00
     -11     1     3     3     0     0 -7.005299862E-01 -2.126717861E-01  1.731912365E+01  1.733459016E+01  5.110000000E-04  0.00000E+00  9.000E+00
       2     1     1     2   502     0  5.134876166E+00  2.858437092E+00  6.602179934E+01  6.628284547E+01  0.000000000E+00  0.00000E+00  9.000E+00
      21     1     1     2   511   502 -5.142088454E+00 -3.377982463E-01  1.690882491E+00  5.423491949E+00  6.140291029E-07  0.00000E+00  9.000E+00
#rwgt            1          24   36385882.378602035                3    17822809           0
<weights>
0.11145E+08
0.10563E+08
0.12096E+08
0.10984E+08
0.11093E+08
0.10514E+08
0.11847E+08
0.11182E+08
0.11109E+08
0.10773E+08
0.10767E+08
0.10939E+08
0.10980E+08
0.10797E+08
0.10777E+08
0.11240E+08
0.11218E+08
0.11509E+08
0.11550E+08
0.11538E+08
0.11482E+08
0.11553E+08
0.11573E+08
0.11438E+08
0.11361E+08
0.11308E+08
0.11344E+08
0.11476E+08
0.11405E+08
0.11527E+08
0.11567E+08
0.11189E+08
0.11228E+08
0.11139E+08
0.11179E+08
0.11220E+08
0.11093E+08
0.11125E+08
0.11087E+08
0.11172E+08
0.11123E+08
0.11192E+08
0.11096E+08
0.11559E+08
0.10765E+08
</weights>
</event>
<event>
      7  10001  1.11453E+07  2.51689E+00 -1.00000E+00  3.16029E-01
      -2    -1     0     0     0   502  0.000000000E+00  0.000000000E+00  4.932680579E+00  4.932680579E+00  0.000000000E+00  0.00000E+00  9.000E+00
      21    -1     0     0   502   501  0.000000000E+00  0.000000000E+00 -1.977606098E+00  1.977606098E+00  0.000000000E+00  0.00000E+00  9.000E+00
      23     2     1     2     0     0  5.983608786E-01 -9.160403446E-01  2.437492223E+00  3.661382133E+00  2.503434668E+00  0.00000E+00  9.000E+00
      11     1     3     3     0     0  1.583425921E+00 -6.128042416E-01  1.425601977E+00  2.217004272E+00  5.110000000E-04  0.00000E+00  9.000E+00
     -11     1     3     3     0     0 -9.850650429E-01 -3.032361029E-01  1.011890247E+00  1.444377861E+00  5.110000000E-04  0.00000E+00  9.000E+00
      -2     1     1     2     0   511  6.668659603E-01  1.179523789E+00 -6.539762546E-01  1.504550271E+00  0.000000000E+00  0.00000E+00  9.000E+00
      21     1     1     2   511   501 -1.265226839E+00 -2.634834444E-01  1.171558513E+00  1.744354272E+00  9.305772183E-08  0.00000E+00  9.000E+00
#rwgt            1           7   1345276.4763311238                3    17865687           0
<weights>
0.11145E+08
0.12788E+08
0.93760E+07
0.12696E+08
0.93417E+07
0.11083E+08
0.10973E+08
0.11202E+08
0.11084E+08
0.10761E+08
0.10745E+08
0.10929E+08
0.10978E+08
0.10775E+08
0.10756E+08
0.11240E+08
0.11238E+08
0.11539E+08
0.11561E+08
0.11557E+08
0.11508E+08
0.11580E+08
0.11604E+08
0.11407E+08
0.11396E+08
0.11353E+08
0.11173E+08
0.11515E+08
0.11408E+08
0.11557E+08
0.11594E+08
0.11199E+08
0.11226E+08
0.11133E+08
0.11187E+08
0.11240E+08
0.11071E+08
0.11153E+08
0.11040E+08
0.11184E+08
0.11112E+08
0.11187E+08
0.11102E+08
0.11581E+08
0.10746E+08
</weights>
</event>
<event>
      6  10001 -1.11453E+07  8.94427E-01 -1.00000E+00  3.58670E-01
      21    -1     0     0   502   501  0.000000000E+00  0.000000000E+00  3.220255164E-03  3.220255164E-03  0.000000000E+00  0.00000E+00  9.000E+00
       2    -1     0     0   501     0  0.000000000E+00  0.000000000E+00 -5.064624532E+02  5.064624532E+02  0.000000000E+00  0.00000E+00  9.000E+00
      23     2     1     2     0     0 -3.880829776E-01 -6.688854490E-01 -1.757205608E+02  1.757260973E+02  1.160926683E+00  0.00000E+00  9.000E+00
      11     1     3     3     0     0  1.121366912E-01  1.090406868E-01 -9.666561661E+01  9.666574316E+01  5.110000000E-04  0.00000E+00  9.000E+00
     -11     1     3     3     0     0 -5.002196688E-01 -7.779261357E-01 -7.905494422E+01  7.906035412E+01  5.110000000E-04  0.00000E+00  9.000E+00
       2     1     1     2   502     0  3.880829776E-01  6.688854490E-01 -3.307386721E+02  3.307395762E+02  0.000000000E+00  0.00000E+00  9.000E+00
#rwgt            1          17  -29046687.098376434                3    17907962           0
<weights>
-.11145E+08
-.11336E+08
-.10811E+08
-.13778E+08
-.86627E+07
-.91702E+07
-.13910E+08
-.11130E+08
-.11160E+08
-.11164E+08
-.11149E+08
-.10977E+08
-.11336E+08
-.11156E+08
-.11152E+08
-.11262E+08
-.10966E+08
-.11487E+08
-.10663E+08
-.10595E+08
-.11528E+08
-.11109E+08
-.11172E+08
-.11031E+08
-.11222E+08
-.11367E+08
-.11007E+08
-.10725E+08
-.11611E+08
-.11065E+08
-.11192E+08
-.11030E+08
-.11258E+08
-.11542E+08
-.10661E+08
-.11092E+08
-.11194E+08
-.11144E+08
-.11154E+08
-.11262E+08
-.11041E+08
-.11132E+08
-.11159E+08
-.11133E+08
-.11158E+08
</weights>
</event>
<event>
      6  10001  1.11453E+07  8.94427E-01 -1.00000E+00  5.95082E-01
      -4    -1     0     0     0   502  0.000000000E+00  0.000000000E+00  4.009990859E-02  4.009990859E-02  0.000000000E+00  0.00000E+00  9.000E+00
      21    -1     0     0   502   501  0.000000000E+00  0.000000000E+00 -4.816060276E+01  4.816060276E+01  0.000000000E+00  0.00000E+00  9.000E+00
      23     2     1     2     0     0  8.160949253E-01 -5.190421438E-01 -2.147075087E+01  2.153340628E+01  1.326283413E+00  0.00000E+00  9.000E+00
      11     1     3     3     0     0  7.465087293E-01  2.627102827E-01 -7.771111987E+00  7.811304229E+00  5.110000000E-04  0.00000E+00  9.000E+00
     -11     1     3     3     0     0  6.958619604E-02 -7.817524265E-01 -1.369963888E+01  1.372210205E+01  5.110000000E-04  0.00000E+00  9.000E+00
      -4     1     1     2     0   501 -8.160949253E-01  5.190421438E-01 -2.664975198E+01  2.666729638E+01  0.000000000E+00  0.00000E+00  9.000E+00
#rwgt            1           3   548645.48376771621                3    17908574           0
<weights>
0.11145E+08
0.12638E+08
0.95088E+07
0.12588E+08
0.94058E+07
0.11036E+08
0.11045E+08
0.11306E+08
0.10987E+08
0.10703E+08
0.10846E+08
0.10885E+08
0.11037E+08
0.10798E+08
0.10834E+08
0.11236E+08
0.11147E+08
0.11432E+08
0.11481E+08
0.11472E+08
0.11415E+08
0.11440E+08
0.11540E+08
0.11194E+08
0.11525E+08
0.11421E+08
0.11006E+08
0.11387E+08
0.11259E+08
0.11347E+08
0.11464E+08
0.11079E+08
0.11310E+08
0.11184E+08
0.11113E+08
0.11386E+08
0.10933E+08
0.10632E+08
0.11610E+08
0.11101E+08
0.11186E+08
0.11160E+08
0.11131E+08
0.11522E+08
0.10781E+08
</weights>
</event>
<event>
      6  10001  1.11453E+07  8.94427E-01 -1.00000E+00  5.84693E-01
      -2    -1     0     0     0   502  0.000000000E+00  0.000000000E+00  3.892364865E-02  3.892364865E-02  0.000000000E+00  0.00000E+00  9.000E+00
      21    -1     0     0   502   501  0.000000000E+00  0.000000000E+00 -2.214368216E+01  2.214368216E+01  0.000000000E+00  0.00000E+00  9.000E+00
      23     2     1     2     0     0 -3.982168254E-01 -3.971331525E-01 -1.294962656E+01  1.301021613E+01  1.120983635E+00  0.00000E+00  9.000E+00
      11     1     3     3     0     0 -7.460910763E-01 -2.985979520E-01 -6.343224543E+00  6.393927627E+00  5.110000000E-04  0.00000E+00  9.000E+00
     -11     1     3     3     0     0  3.478742510E-01 -9.853520055E-02 -6.606402019E+00  6.616288505E+00  5.110000000E-04  0.00000E+00  9.000E+00
      -2     1     1     2     0   501  3.982168254E-01  3.971331525E-01 -9.155131945E+00  9.172389673E+00  0.000000000E+00  0.00000E+00  9.000E+00
#rwgt            1           7   714686.62830179150                3    17931027           0
<weights>
0.11145E+08
0.13467E+08
0.88684E+07
0.11543E+08
0.10142E+08
0.12374E+08
0.89918E+07
0.11320E+08
0.10965E+08
0.10462E+08
0.10539E+08
0.10781E+08
0.10878E+08
0.10514E+08
0.10534E+08
0.11284E+08
0.11297E+08
0.11742E+08
0.11844E+08
0.11840E+08
0.11695E+08
0.11786E+08
0.11932E+08
0.11388E+08
0.11732E+08
0.11631E+08
0.10954E+08
0.11713E+08
0.11474E+08
0.11706E+08
0.11822E+08
0.11163E+08
0.11328E+08
0.11158E+08
0.11166E+08
0.11409E+08
0.10916E+08
0.10799E+08
0.11243E+08
0.11188E+08
0.11109E+08
0.11197E+08
0.11091E+08
0.11846E+08
0.10497E+08
</weights>
</event>
<event>
      7  10001  1.11453E+07  8.94427E-01 -1.00000E+00  6.07649E-01
      21    -1     0     0   502   501  0.000000000E+00  0.000000000E+00  9.709464103E-02  9.709464103E-02  0.000000000E+00  0.00000E+00  9.000E+00
      -2    -1     0     0     0   502  0.000000000E+00  0.000000000E+00 -2.848175513E+01  2.848175513E+01  0.000000000E+00  0.00000E+00  9.000E+00
      23     2     1     2     0     0  1.562996883E-01  2.468936895E-01 -2.581115683E+01  2.594990152E+01  2.663866720E+00  0.00000E+00  9.000E+00
      11     1     3     3     0     0  5.627935497E-01  1.216637598E+00 -8.331919864E+00  8.439065855E+00  5.110000000E-04  0.00000E+00  9.000E+00
     -11     1     3     3     0     0 -4.064938614E-01 -9.697439085E-01 -1.747923697E+01  1.751083567E+01  5.110000000E-04  0.00000E+00  9.000E+00
      -2     1     1     2     0   511  5.765387928E-02 -1.735273775E-01 -2.056748681E+00  2.064860978E+00  0.000000000E+00  0.00000E+00  9.000E+00
      21     1     1     2   511   501 -2.139535676E-01 -7.336631201E-02 -5.167549788E-01  5.640872742E-01  3.414284956E-08  0.00000E+00  9.000E+00
#rwgt            2         160   11813929.309337944                3    17960526           0
<weights>
0.11145E+08
0.11573E+08
0.10448E+08
0.14065E+08
0.83716E+07
0.91702E+07
0.13910E+08
0.11221E+08
0.11069E+08
0.10941E+08
0.11001E+08
0.11020E+08
0.11062E+08
0.10990E+08
0.11001E+08
0.11112E+08
0.11238E+08
0.11303E+08
0.11261E+08
0.11240E+08
0.11305E+08
0.11280E+08
0.11321E+08
0.11217E+08
0.11271E+08
0.11317E+08
0.11044E+08
0.11278E+08
0.11116E+08
0.11240E+08
0.11285E+08
0.11085E+08
0.11249E+08
0.11230E+08
0.11068E+08
0.11062E+08
0.11232E+08
0.10902E+08
0.11360E+08
0.11111E+08
0.11168E+08
0.11231E+08
0.11054E+08
0.11315E+08
0.10979E+08
</weights>
</event>
<event>
      7  10001  1.11453E+07  1.92073E+00 -1.00000E+00  3.61645E-01
      -2    -1     0     0     0   502  0.000000000E+00  0.000000000E+00  3.766891028E+01  3.766891028E+01  0.000000000E+00  0.00000E+00  9.000E+00
      21    -1     0     0   512   501  0.000000000E+00  0.000000000E+00 -8.301766131E-01  8.301766131E-01  0.000000000E+00  0.00000E+00  9.000E+00
      23     2     1     2     0     0  2.896278511E-01 -3.600084698E-01  3.219946722E+01  3.223354205E+01  1.407854332E+00  0.00000E+00  9.000E+00
      11     1     3     3     0     0 -2.180739145E-01 -1.628901346E-01  1.250413514E+00  1.279696701E+00  5.110000000E-04  0.00000E+00  9.000E+00
     -11     1     3     3     0     0  5.077017656E-01 -1.971183351E-01  3.094905370E+01  3.095384535E+01  5.110000000E-04  0.00000E+00  9.000E+00
      -2     1     1     2     0   501 -6.687962365E-01 -1.522921768E+00  3.840748623E+00  4.185442522E+00  0.000000000E+00  0.00000E+00  9.000E+00
      21     1     1     2   512   502  3.791683854E-01  1.882930238E+00  7.985178304E-01  2.080102322E+00  2.980232239E-08  0.00000E+00  9.000E+00
#rwgt            1           7   2113241.8603265584                3    17961252           0
<weights>
0.11145E+08
0.14762E+08
0.73263E+07
0.13580E+08
0.86106E+07
0.12073E+08
0.94537E+07
0.11142E+08
0.11150E+08
0.10730E+08
0.10672E+08
0.10924E+08
0.10930E+08
0.10730E+08
0.10690E+08
0.11243E+08
0.11280E+08
0.11599E+08
0.11661E+08
0.11643E+08
0.11566E+08
0.11668E+08
0.11665E+08
0.11589E+08
0.11346E+08
0.11328E+08
0.11524E+08
0.11581E+08
0.11493E+08
0.11661E+08
0.11680E+08
0.11231E+08
0.11220E+08
0.11125E+08
0.11206E+08
0.11180E+08
0.11136E+08
0.11305E+08
0.10908E+08
0.11211E+08
0.11089E+08
0.11207E+08
0.11080E+08
0.11647E+08
0.10690E+08
</weights>
</event>
<event>
      6  10001 -1.11453E+07  8.94427E-01 -1.00000E+00  6.27202E-01
       2    -1     0     0   501     0  0.000000000E+00  0.000000000E+00  7.051936042E+02  7.051936042E+02  0.000000000E+00  0.00000E+00  9.000E+00
      21    -1     0     0   502   501  0.000000000E+00  0.000000000E+00 -1.519543777E-03  1.519543777E-03  0.000000000E+00  0.00000E+00  9.000E+00
      23     2     1     2     0     0  3.263747889E-01  8.009001616E-02  6.746273757E+02  6.746285673E+02  1.222675027E+00  0.00000E+00  9.000E+00
      11     1     3     3     0     0  7.081862740E-01 -2.567128397E-01  3.708839889E+02  3.708847538E+02  5.110000000E-04  0.00000E+00  9.000E+00
     -11     1     3     3     0     0 -3.818114851E-01  3.368028559E-01  3.037433867E+02  3.037438135E+02  5.110000000E-04  0.00000E+00  9.000E+00
       2     1     1     2   502     0 -3.263747889E-01 -8.009001616E-02  3.056470896E+01  3.056655637E+01  0.000000000E+00  0.00000E+00  9.000E+00
#rwgt            1          24  -16092581.811951302                3    17986893           0
<weights>
-.11145E+08
-.10353E+08
-.11851E+08
-.12599E+08
-.94967E+07
-.91583E+07
-.13909E+08
-.11170E+08
-.11122E+08
-.10823E+08
-.10813E+08
-.10962E+08
-.11005E+08
-.10840E+08
-.10823E+08
-.11225E+08
-.11212E+08
-.11462E+08
-.11506E+08
-.11494E+08
-.11439E+08
-.11502E+08
-.11521E+08
-.11416E+08
-.11327E+08
-.11286E+08
-.11365E+08
-.11435E+08
-.11373E+08
-.11480E+08
-.11514E+08
-.11184E+08
-.11217E+08
-.11138E+08
-.11178E+08
-.11207E+08
-.11103E+08
-.11133E+08
-.11084E+08
-.11166E+08
-.11127E+08
-.11185E+08
-.11103E+08
-.11506E+08
-.10813E+08
</weights>
</event>
<event>
      7  10001  1.11453E+07  1.29861E+00 -1.00000E+00  4.70942E-01
       2    -1     0     0   502     0  0.000000000E+00  0.000000000E+00  1.004504150E+02  1.004504150E+02  0.000000000E+00  0.00000E+00  9.000E+00
      -1    -1     0     0     0   502  0.000000000E+00  0.000000000E+00 -2.016163534E+00  2.016163534E+00  0.000000000E+00  0.00000E+00  9.000E+00
      23     2     1     2     0     0  9.095976765E-01 -1.537787664E+00 -5.759780189E-01  3.409849745E+00  2.846606010E+00  0.00000E+00  9.000E+00
      11     1     3     3     0     0 -2.089297029E-01 -4.203418457E-02  9.651454184E-01  9.883948772E-01  5.110000000E-04  0.00000E+00  9.000E+00
     -11     1     3     3     0     0  1.118527379E+00 -1.495753479E+00 -1.541123437E+00  2.421454868E+00  5.110000000E-04  0.00000E+00  9.000E+00
      -1     1     1     2     0   501  2.880626350E-01  1.035805671E+00  1.587789459E+01  1.591425179E+01  0.000000000E+00  0.00000E+00  9.000E+00
       2     1     1     2   501     0 -1.197660311E+00  5.019819930E-01  8.313233488E+01  8.314247698E+01  0.000000000E+00  0.00000E+00  9.000E+00
#rwgt            1          15   846398.78172696719                3    17989400           0
<weights>
0.11089E+08
0.12958E+08
0.10071E+08
0.12595E+08
0.94592E+07
0.11320E+08
0.11704E+08
0.10963E+08
0.11221E+08
0.10775E+08
0.10740E+08
0.10926E+08
0.10908E+08
0.10783E+08
0.10755E+08
0.11104E+08
0.11261E+08
0.11446E+08
0.11405E+08
0.11388E+08
0.11427E+08
0.11464E+08
0.11463E+08
0.11359E+08
0.11247E+08
0.11343E+08
0.11011E+08
0.11442E+08
0.11235E+08
0.11452E+08
0.11458E+08
0.11089E+08
0.11203E+08
0.11098E+08
0.11110E+08
0.10929E+08
0.11279E+08
0.11100E+08
0.10993E+08
0.11113E+08
0.11065E+08
0.11172E+08
0.11001E+08
0.11454E+08
0.10755E+08
</weights>
</event>
<event>
      7  10001  1.11453E+07  1.31960E+00 -1.00000E+00  4.66011E-01
      21    -1     0     0   502   511  0.000000000E+00  0.000000000E+00  1.063602407E+02  1.063602407E+02  0.000000000E+00  0.00000E+00  9.000E+00
       1    -1     0     0   501     0  0.000000000E+00  0.000000000E+00 -4.652788590E-01  4.652788590E-01  0.000000000E+00  0.00000E+00  9.000E+00
      23     2     1     2     0     0  8.360221601E-01  5.069549446E-01  2.270834539E+00  3.122143697E+00  1.906608348E+00  0.00000E+00  9.000E+00
      11     1     3     3     0     0  4.960042724E-01  1.218991667E+00  1.691945762E+00  2.143511522E+00  5.110000000E-04  0.00000E+00  9.000E+00
     -11     1     3     3     0     0  3.400178877E-01 -7.120367220E-01  5.788887772E-01  9.786321755E-01  5.110000000E-04  0.00000E+00  9.000E+00
       1     1     1     2   502     0 -1.688878549E+00  5.000054447E-01  2.260965826E+01  2.267816048E+01  0.000000000E+00  0.00000E+00  9.000E+00
      21     1     1     2   501   511  8.528563891E-01 -1.006960389E+00  8.101446902E+01  8.102521535E+01  0.000000000E+00  0.00000E+00  9.000E+00
#rwgt            1          16   385315.54980365874                3    18014214           0
<weights>
0.11145E+08
0.12091E+08
0.10114E+08
0.12711E+08
0.94306E+07
0.10527E+08
0.11827E+08
0.10964E+08
0.11359E+08
0.10826E+08
0.10784E+08
0.10960E+08
0.10986E+08
0.10833E+08
0.10800E+08
0.11240E+08
0.11226E+08
0.11555E+08
0.11427E+08
0.11403E+08
0.11542E+08
0.11529E+08
0.11536E+08
0.11428E+08
0.11315E+08
0.11384E+08
0.11153E+08
0.11456E+08
0.11381E+08
0.11516E+08
0.11536E+08
0.11168E+08
0.11241E+08
0.11202E+08
0.11120E+08
0.11027E+08
0.11300E+08
0.11187E+08
0.11032E+08
0.11164E+08
0.11127E+08
0.11219E+08
0.11068E+08
0.11522E+08
0.10801E+08
</weights>
</event>
<event>
      6  10001 -1.11453E+07  8.94427E-01 -1.00000E+00  3.11238E-01
       2    -1     0     0   501     0  0.000000000E+00  0.000000000E+00  3.023942627E+02  3.023942627E+02  0.000000000E+00  0.00000E+00  9.000E+00
      21    -1     0     0   502   501  0.000000000E+00  0.000000000E+00 -1.216160696E-02  1.216160696E-02  0.000000000E+00  0.00000E+00  9.000E+00
      23     2     1     2     0     0  1.178975420E-01  5.518330431E-01  2.935895741E+02  2.935958086E+02  1.828207742E+00  0.00000E+00  9.000E+00
      11     1     3     3     0     0 -6.132871642E-01 -2.520189851E-01  1.749965200E+02  1.749977761E+02  5.110000000E-04  0.00000E+00  9.000E+00
     -11     1     3     3     0     0  7.311847061E-01  8.038520282E-01  1.185930541E+02  1.185980324E+02  5.110000000E-04  0.00000E+00  9.000E+00
       2     1     1     2   502     0 -1.178975420E-01 -5.518330431E-01  8.792526979E+00  8.810615768E+00  0.000000000E+00  0.00000E+00  9.000E+00
#rwgt            1          24  -24836432.786074650                3    18024351           0
<weights>
-.11145E+08
-.11840E+08
-.10289E+08
-.14395E+08
-.82441E+07
-.91675E+07
-.13909E+08
-.11182E+08
-.11108E+08
-.10843E+08
-.10844E+08
-.10969E+08
-.11023E+08
-.10864E+08
-.10853E+08
-.11223E+08
-.11195E+08
-.11433E+08
-.11467E+08
-.11457E+08
-.11412E+08
-.11465E+08
-.11490E+08
-.11365E+08
-.11328E+08
-.11280E+08
-.11282E+08
-.11403E+08
-.11345E+08
-.11439E+08
-.11478E+08
-.11173E+08
-.11216E+08
-.11141E+08
-.11171E+08
-.11218E+08
-.11091E+08
-.11093E+08
-.11125E+08
-.11157E+08
-.11136E+08
-.11180E+08
-.11109E+08
-.11475E+08
-.10840E+08
</weights>
</event>
<event>
      7  10001  1.11453E+07  1.65485E+00 -1.00000E+00  3.93167E-01
       4    -1     0     0   501     0  0.000000000E+00  0.000000000E+00  7.663702791E-02  7.663702791E-02  0.000000000E+00  0.00000E+00  9.000E+00
      21    -1     0     0   502   501  0.000000000E+00  0.000000000E+00 -2.990331927E+01  2.990331927E+01  0.000000000E+00  0.00000E+00  9.000E+00
      23     2     1     2     0     0  1.532618905E-01  9.394482993E-01 -1.112527139E+01  1.121392510E+01  1.036532792E+00  0.00000E+00  9.000E+00
      11     1     3     3     0     0 -1.758378545E-01 -8.046181350E-02 -5.225925131E-01  5.572219041E-01  5.110000000E-04  0.00000E+00  9.000E+00
     -11     1     3     3     0     0  3.290997450E-01  1.019910113E+00 -1.060267888E+01  1.065670319E+01  5.110000000E-04  0.00000E+00  9.000E+00
       4     1     1     2   511     0 -5.468154194E-01 -9.425772931E-02 -4.505891940E+00  4.539928832E+00  0.000000000E+00  0.00000E+00  9.000E+00
      21     1     1     2   502   511  3.935535289E-01 -8.451905700E-01 -1.419551891E+01  1.422610237E+01  0.000000000E+00  0.00000E+00  9.000E+00
#rwgt            1          28   845042.97195486294                3    18026307           0
<weights>
0.11145E+08
0.12921E+08
0.92638E+07
0.12487E+08
0.94381E+07
0.11309E+08
0.10627E+08
0.11279E+08
0.11010E+08
0.10685E+08
0.10764E+08
0.10887E+08
0.10991E+08
0.10735E+08
0.10759E+08
0.11237E+08
0.11219E+08
0.11517E+08
0.11585E+08
0.11581E+08
0.11489E+08
0.11538E+08
0.11648E+08
0.11271E+08
0.11548E+08
0.11465E+08
0.10999E+08
0.11489E+08
0.11334E+08
0.11472E+08
0.11565E+08
0.11131E+08
0.11285E+08
0.11161E+08
0.11146E+08
0.11349E+08
0.10967E+08
0.10817E+08
0.11332E+08
0.11149E+08
0.11143E+08
0.11173E+08
0.11117E+08
0.11594E+08
0.10726E+08
</weights>
</event>
<event>
      7  10001  1.11453E+07  9.20137E+00 -1.00000E+00  1.99466E-01
      -4    -1     0     0     0   502  0.000000000E+00  0.000000000E+00  1.816367041E+00  1.816367041E+00  0.000000000E+00  0.00000E+00  9.000E+00
       3    -1     0     0   502     0  0.000000000E+00  0.000000000E+00 -1.677356977E+02  1.677356977E+02  0.000000000E+00  0.00000E+00  9.000E+00
      23     2     1     2     0     0 -4.716036417E-01 -3.048610077E-01  6.672582534E-01  1.896356232E+00  1.683918987E+00  0.00000E+00  9.000E+00
      11     1     3     3     0     0 -9.528107416E-01  2.267816231E-01  6.566801443E-01  1.179197730E+00  5.110000000E-04  0.00000E+00  9.000E+00
     -11     1     3     3     0     0  4.812070999E-01 -5.316426308E-01  1.057810915E-02  7.171585022E-01  5.110000000E-04  0.00000E+00  9.000E+00
      -4     1     1     2     0   501  3.284686266E+00  9.065666426E+00 -7.856822814E+01  7.915770300E+01  0.000000000E+00  0.00000E+00  9.000E+00
       3     1     1     2   501     0 -2.813082624E+00 -8.760805419E+00 -8.801836077E+01  8.849800550E+01  0.000000000E+00  0.00000E+00  9.000E+00
#rwgt            2          49   7667.7504644034816                3    18072026           0
<weights>
0.11143E+08
0.10345E+08
0.11916E+08
0.12573E+08
0.95479E+07
0.91683E+07
0.13907E+08
0.11041E+08
0.11240E+08
0.11278E+08
0.11352E+08
0.11502E+08
0.10875E+08
0.11337E+08
0.11285E+08
0.12881E+08
0.89484E+07
0.11766E+08
0.99537E+07
0.98067E+07
0.11852E+08
0.10952E+08
0.10947E+08
0.95400E+07
0.12790E+08
0.12208E+08
0.97203E+07
0.99678E+07
0.12227E+08
0.10899E+08
0.11035E+08
0.11281E+08
0.10945E+08
0.11196E+08
0.11101E+08
0.11108E+08
0.11167E+08
0.11257E+08
0.11043E+08
0.11079E+08
0.11189E+08
0.11249E+08
0.11029E+08
0.10952E+08
0.11315E+08
</weights>
</event>
<event>
      6  10001 -1.11453E+07  8.94427E-01 -1.00000E+00  1.64800E-01
       2    -1     0     0   501     0  0.000000000E+00  0.000000000E+00  2.191382749E+01  2.191382749E+01  0.000000000E+00  0.00000E+00  9.000E+00
      21    -1     0     0   502   501  0.000000000E+00  0.000000000E+00 -2.309839550E-02  2.309839550E-02  0.000000000E+00  0.00000E+00  9.000E+00
      23     2     1     2     0     0 -5.839804808E-02  2.676839418E-01  1.762061616E+01  1.765803239E+01  1.115763954E+00  0.00000E+00  9.000E+00
      11     1     3     3     0     0 -2.824534238E-01  2.920976583E-01  2.290612574E+00  2.326372112E+00  5.110000000E-04  0.00000E+00  9.000E+00
     -11     1     3     3     0     0  2.240553757E-01 -2.441371642E-02  1.533000358E+01  1.533166028E+01  5.110000000E-04  0.00000E+00  9.000E+00
       2     1     1     2   502     0  5.839804808E-02 -2.676839418E-01  4.270112944E+00  4.278893499E+00  0.000000000E+00  0.00000E+00  9.000E+00
#rwgt            1          24  -19673879.904123038                3    18078756           0
<weights>
-.11145E+08
-.12818E+08
-.93364E+07
-.15582E+08
-.74809E+07
-.91679E+07
-.13910E+08
-.11172E+08
-.11120E+08
-.10823E+08
-.10813E+08
-.10962E+08
-.11006E+08
-.10841E+08
-.10823E+08
-.11226E+08
-.11211E+08
-.11462E+08
-.11504E+08
-.11492E+08
-.11439E+08
-.11502E+08
-.11521E+08
-.11412E+08
-.11328E+08
-.11287E+08
-.11351E+08
-.11435E+08
-.11372E+08
-.11480E+08
-.11514E+08
-.11184E+08
-.11217E+08
-.11138E+08
-.11178E+08
-.11208E+08
-.11101E+08
-.11133E+08
-.11083E+08
-.11166E+08
-.11127E+08
-.11185E+08
-.11104E+08
-.11506E+08
-.10814E+08
</weights>
</event>
<event>
      6  10001 -1.11453E+07  8.94427E-01 -1.00000E+00  3.48934E-01
       2    -1     0     0   501     0  0.000000000E+00  0.000000000E+00  1.606174876E+03  1.606174876E+03  0.000000000E+00  0.00000E+00  9.000E+00
      21    -1     0     0   502   501  0.000000000E+00  0.000000000E+00 -1.144732651E-03  1.144732651E-03  0.000000000E+00  0.00000E+00  9.000E+00
      23     2     1     2     0     0 -4.423249189E-01 -1.788402620E-01  4.178741026E+02  4.178762963E+02  1.267176631E+00  0.00000E+00  9.000E+00
      11     1     3     3     0     0  5.697787129E-02  3.732710638E-01  4.944856327E+01  4.945000493E+01  5.110000000E-04  0.00000E+00  9.000E+00
     -11     1     3     3     0     0 -4.993027901E-01 -5.521113258E-01  3.684255394E+02  3.684262914E+02  5.110000000E-04  0.00000E+00  9.000E+00
       2     1     1     2   502     0  4.423249189E-01  1.788402620E-01  1.188299628E+03  1.188299724E+03  0.000000000E+00  0.00000E+00  9.000E+00
#rwgt            1          24  -1320677.8310377037                3    18083679           0
<weights>
-.11145E+08
-.10108E+08
-.12541E+08
-.12291E+08
-.10049E+08
-.91670E+07
-.13909E+08
-.11196E+08
-.11093E+08
-.10874E+08
-.10893E+08
-.10982E+08
-.11049E+08
-.10902E+08
-.10899E+08
-.11218E+08
-.11170E+08
-.11386E+08
-.11412E+08
-.11405E+08
-.11368E+08
-.11407E+08
-.11442E+08
-.11297E+08
-.11326E+08
-.11268E+08
-.11201E+08
-.11353E+08
-.11302E+08
-.11376E+08
-.11421E+08
-.11156E+08
-.11216E+08
-.11145E+08
-.11161E+08
-.11230E+08
-.11075E+08
-.11029E+08
-.11189E+08
-.11141E+08
-.11150E+08
-.11172E+08
-.11117E+08
-.11427E+08
-.10882E+08
</weights>
</event>
<event>
      7  10001  1.11453E+07  1.42219E+00 -1.00000E+00  4.42966E-01
      -2    -1     0     0     0   502  0.000000000E+00  0.000000000E+00  2.850472772E-02  2.850472772E-02  0.000000000E+00  0.00000E+00  9.000E+00
       2    -1     0     0   501     0  0.000000000E+00  0.000000000E+00 -1.356211709E+02  1.356211709E+02  0.000000000E+00  0.00000E+00  9.000E+00
      23     2     1     2     0     0  2.832686333E-01 -7.098482621E-01 -1.050783527E+02  1.051045849E+02  2.220232228E+00  0.00000E+00  9.000E+00
      11     1     3     3     0     0 -6.205930956E-01  5.073028832E-01 -4.480010444E+01  4.480727452E+01  5.110000000E-04  0.00000E+00  9.000E+00
     -11     1     3     3     0     0  9.038617289E-01 -1.217151145E+00 -6.027824828E+01  6.029731038E+01  5.110000000E-04  0.00000E+00  9.000E+00
      21     1     1     2   501   511  4.051940528E-01  4.153359391E-01 -1.715241523E+01  1.716222696E+01  2.384185791E-07  0.00000E+00  9.000E+00
      21     1     1     2   511   502 -6.884626862E-01  2.945123230E-01 -1.336189824E+01  1.338286378E+01  0.000000000E+00  0.00000E+00  9.000E+00
#rwgt            1           8   945722.54444680188                3    18084172           0
<weights>
0.11145E+08
0.11857E+08
0.10468E+08
0.11278E+08
0.10466E+08
0.11294E+08
0.10650E+08
0.11155E+08
0.11135E+08
0.11137E+08
0.11159E+08
0.11181E+08
0.11079E+08
0.11154E+08
0.11156E+08
0.11207E+08
0.11024E+08
0.11068E+08
0.11208E+08
0.11221E+08
0.11057E+08
0.11131E+08
0.11132E+08
0.11266E+08
0.11001E+08
0.11034E+08
0.11201E+08
0.11261E+08
0.10933E+08
0.11148E+08
0.11120E+08
0.11125E+08
0.11158E+08
0.11052E+08
0.11254E+08
0.11145E+08
0.11139E+08
0.11136E+08
0.11156E+08
0.11098E+08
0.11181E+08
0.11209E+08
0.11077E+08
0.11136E+08
0.11151E+08
</weights>
</event>
<event>
      6  10001 -1.11453E+07  8.94427E-01 -1.00000E+00  4.90315E-01
      -2    -1     0     0     0   502  0.000000000E+00  0.000000000E+00  5.129945717E+01  5.129945717E+01  0.000000000E+00  0.00000E+00  9.000E+00
      21    -1     0     0   502   501  0.000000000E+00  0.000000000E+00 -1.784081317E-02  1.784081317E-02  0.000000000E+00  0.00000E+00  9.000E+00
      23     2     1     2     0     0 -2.877719364E-01 -1.250550761E-01  4.924691260E+01  4.925854331E+01  1.023345557E+00  0.00000E+00  9.000E+00
      11     1     3     3     0     0 -3.852779437E-01 -5.291603699E-01  3.045286674E+01  3.045990057E+01  5.110000000E-04  0.00000E+00  9.000E+00
     -11     1     3     3     0     0  9.750600727E-02  4.041052938E-01  1.879404586E+01  1.879864273E+01  5.110000000E-04  0.00000E+00  9.000E+00
      -2     1     1     2     0   501  2.877719364E-01  1.250550761E-01  2.034703751E+00  2.058754676E+00  0.000000000E+00  0.00000E+00  9.000E+00
#rwgt            1           7  -5959802.0200201850                3    18086102           0
<weights>
-.11145E+08
-.12108E+08
-.10046E+08
-.14723E+08
-.80499E+07
-.91659E+07
-.13909E+08
-.11182E+08
-.11108E+08
-.10845E+08
-.10847E+08
-.10970E+08
-.11025E+08
-.10867E+08
-.10856E+08
-.11223E+08
-.11193E+08
-.11430E+08
-.11464E+08
-.11454E+08
-.11408E+08
-.11461E+08
-.11486E+08
-.11362E+08
-.11327E+08
-.11278E+08
-.11286E+08
-.11399E+08
-.11342E+08
-.11435E+08
-.11474E+08
-.11172E+08
-.11217E+08
-.11141E+08
-.11170E+08
-.11218E+08
-.11090E+08
-.11088E+08
-.11131E+08
-.11155E+08
-.11137E+08
-.11180E+08
-.11109E+08
-.11472E+08
-.10843E+08
</weights>
</event>
<event>
      6  10001 -1.11453E+07  8.94427E-01 -1.00000E+00  2.21342E-01
       2    -1     0     0   501     0  0.000000000E+00  0.000000000E+00  5.677312981E+02  5.677312981E+02  0.000000000E+00  0.00000E+00  9.000E+00
      21    -1     0     0   502   501  0.000000000E+00  0.000000000E+00 -1.379931747E-03  1.379931747E-03  0.000000000E+00  0.00000E+00  9.000E+00
      23     2     1     2     0     0 -3.203452966E-01 -3.281829503E-01  3.640862340E+02  3.640884775E+02  1.193023552E+00  0.00000E+00  9.000E+00
      11     1     3     3     0     0 -5.126805945E-01 -6.519925424E-01  1.865307531E+02  1.865325972E+02  5.110000000E-04  0.00000E+00  9.000E+00
     -11     1     3     3     0     0  1.923352979E-01  3.238095920E-01  1.775554809E+02  1.775558803E+02  5.110000000E-04  0.00000E+00  9.000E+00
       2     1     1     2   502     0  3.203452966E-01  3.281829503E-01  2.036436842E+02  2.036442006E+02  0.000000000E+00  0.00000E+00  9.000E+00
#rwgt            1          24  -40262097.689778879                3    18087633           0
<weights>
-.11145E+08
-.20049E+08
0.45119E+06
-.24385E+08
0.36186E+06
-.91660E+07
-.13909E+08
-.11153E+08
-.11137E+08
-.10958E+08
-.10931E+08
-.11023E+08
-.11072E+08
-.10952E+08
-.10942E+08
-.11190E+08
-.11199E+08
-.11346E+08
-.11380E+08
-.11373E+08
-.11332E+08
-.11372E+08
-.11392E+08
-.11326E+08
-.11250E+08
-.11237E+08
-.11264E+08
-.11338E+08
-.11288E+08
-.11365E+08
-.11382E+08
-.11175E+08
-.11186E+08
-.11131E+08
-.11176E+08
-.11182E+08
-.11121E+08
-.11179E+08
-.11052E+08
-.11158E+08
-.11135E+08
-.11165E+08
-.11125E+08
-.11371E+08
-.10940E+08
</weights>
</event>
<event>
      7  10001  1.11453E+07  1.61330E+00 -1.00000E+00  3.99114E-01
       1    -1     0     0   501     0  0.000000000E+00  0.000000000E+00  6.152801105E-01  6.152801105E-01  0.000000000E+00  0.00000E+00  9.000E+00
      -2    -1     0     0     0   501  0.000000000E+00  0.000000000E+00 -1.488523939E+02  1.488523939E+02  0.000000000E+00  0.00000E+00  9.000E+00
      23     2     1     2     0     0  1.839825970E-01  2.586622661E-01 -2.951379894E+00  3.600237225E+00  2.037230726E+00  0.00000E+00  9.000E+00
      11     1     3     3     0     0  5.787610739E-02  1.151696432E+00 -1.799568417E+00  2.137335038E+00  5.110000000E-04  0.00000E+00  9.000E+00
     -11     1     3     3     0     0  1.261064896E-01 -8.930341661E-01 -1.151811477E+00  1.462902187E+00  5.110000000E-04  0.00000E+00  9.000E+00
       1     1     1     2   502     0 -1.538178603E+00  6.182025247E-01 -2.113363333E+00  2.685976983E+00  0.000000000E+00  0.00000E+00  9.000E+00
      -2     1     1     2     0   502  1.354196006E+00 -8.768647908E-01 -1.431723705E+02  1.431814598E+02  0.000000000E+00  0.00000E+00  9.000E+00
#rwgt            1          22   120780.18861610032                3    18089231           0
<weights>
0.11145E+08
0.13912E+08
0.84813E+07
0.11357E+08
0.10209E+08
0.12824E+08
0.83011E+07
0.11224E+08
0.11059E+08
0.10615E+08
0.10578E+08
0.10859E+08
0.10899E+08
0.10624E+08
0.10592E+08
0.11271E+08
0.11308E+08
0.11712E+08
0.11733E+08
0.11732E+08
0.11665E+08
0.11769E+08
0.11796E+08
0.11495E+08
0.11516E+08
0.11487E+08
0.11098E+08
0.11697E+08
0.11508E+08
0.11745E+08
0.11786E+08
0.11236E+08
0.11245E+08
0.11119E+08
0.11215E+08
0.11276E+08
0.11040E+08
0.11205E+08
0.10913E+08
0.11222E+08
0.11079E+08
0.11203E+08
0.11085E+08
0.11761E+08
0.10585E+08
</weights>
</event>
<event>
      7  10001  1.11453E+07  2.57150E+00 -1.00000E+00  3.12911E-01
      21    -1     0     0   502   511  0.000000000E+00  0.000000000E+00  5.335212419E+01  5.335212419E+01  0.000000000E+00  0.00000E+00  9.000E+00
      -2    -1     0     0     0   502  0.000000000E+00  0.000000000E+00 -2.651876508E+01  2.651876508E+01  0.000000000E+00  0.00000E+00  9.000E+00
      23     2     1     2     0     0 -6.456051546E-01  1.127424783E+00 -4.038731794E+00  4.471066504E+00  1.411094795E+00  0.00000E+00  9.000E+00
      11     1     3     3     0     0 -8.203349798E-01  1.325726024E+00 -2.802970380E+00  3.207357507E+00  5.110000000E-04  0.00000E+00  9.000E+00
     -11     1     3     3     0     0  1.747298252E-01 -1.983012406E-01 -1.235761414E+00  1.263708996E+00  5.110000000E-04  0.00000E+00  9.000E+00
      -2     1     1     2     0   501  3.074839037E+00 -1.970904012E+00 -2.208267164E+01  2.238266036E+01  0.000000000E+00  0.00000E+00  9.000E+00
      21     1     1     2   501   511 -2.429233882E+00  8.434792287E-01  5.295476254E+01  5.301716241E+01  6.743495762E-07  0.00000E+00  9.000E+00
#rwgt            1          14   486706.29630033975                3    18093638           0
<weights>
0.11145E+08
0.11952E+08
0.10762E+08
0.10309E+08
0.11283E+08
0.11979E+08
0.95979E+07
0.11225E+08
0.11063E+08
0.10851E+08
0.10905E+08
0.10996E+08
0.10984E+08
0.10892E+08
0.10903E+08
0.11101E+08
0.11316E+08
0.11404E+08
0.11375E+08
0.11348E+08
0.11401E+08
0.11385E+08
0.11450E+08
0.11284E+08
0.11339E+08
0.11414E+08
0.11006E+08
0.11384E+08
0.11152E+08
0.11344E+08
0.11392E+08
0.11077E+08
0.11290E+08
0.11242E+08
0.11064E+08
0.10983E+08
0.11315E+08
0.10900E+08
0.11314E+08
0.11136E+08
0.11144E+08
0.11265E+08
0.11017E+08
0.11421E+08
0.10885E+08
</weights>
</event>
<event>
      7  10001  1.11453E+07  2.79922E+00 -1.00000E+00  3.01201E-01
      21    -1     0     0   511   502  0.000000000E+00  0.000000000E+00  5.148216656E+00  5.148216656E+00  0.000000000E+00  0.00000E+00  9.000E+00
       4    -1     0     0   501     0  0.000000000E+00  0.000000000E+00 -8.538707670E+00  8.538707670E+00  0.000000000E+00  0.00000E+00  9.000E+00
      23     2     1     2     0     0  6.059361212E-01  1.345974515E+00 -5.902453500E+00  6.243210438E+00  1.399969026E+00  0.00000E+00  9.000E+00
      11     1     3     3     0     0  1.237786075E-01  1.437772532E+00 -5.120627385E+00  5.320087976E+00  5.110000000E-04  0.00000E+00  9.000E+00
     -11     1     3     3     0     0  4.821575136E-01 -9.179801706E-02 -7.818261152E-01  9.231224618E-01  5.110000000E-04  0.00000E+00  9.000E+00
      21     1     1     2   501   502 -2.768062391E+00 -3.123855268E+00  1.141902310E+00  4.327191008E+00  2.827296549E-07  0.00000E+00  9.000E+00
       4     1     1     2   511     0  2.162126270E+00  1.777880753E+00  1.370060177E+00  3.116522880E+00  0.000000000E+00  0.00000E+00  9.000E+00
#rwgt            2         196   644345.40668366407                3    18105048           0
<weights>
0.11145E+08
0.11026E+08
0.11019E+08
0.13400E+08
0.88291E+07
0.91702E+07
0.13910E+08
0.11226E+08
0.11062E+08
0.10822E+08
0.10848E+08
0.10943E+08
0.11048E+08
0.10852E+08
0.10854E+08
0.11217E+08
0.11203E+08
0.11436E+08
0.11455E+08
0.11452E+08
0.11414E+08
0.11454E+08
0.11503E+08
0.11271E+08
0.11405E+08
0.11376E+08
0.11044E+08
0.11421E+08
0.11294E+08
0.11415E+08
0.11468E+08
0.11155E+08
0.11231E+08
0.11142E+08
0.11166E+08
0.11285E+08
0.11023E+08
0.10986E+08
0.11201E+08
0.11145E+08
0.11148E+08
0.11160E+08
0.11130E+08
0.11479E+08
0.10834E+08
</weights>
</event>
<event>
      7  10001  1.11453E+07  1.14957E+00 -1.00000E+00  5.11439E-01
      21    -1     0     0   502   511  0.000000000E+00  0.000000000E+00  2.805181027E+02  2.805181027E+02  0.000000000E+00  0.00000E+00  9.000E+00
      -2    -1     0     0     0   502  0.000000000E+00  0.000000000E+00 -8.628828037E-02  8.628828037E-02  0.000000000E+00  0.00000E+00  9.000E+00
      23     2     1     2     0     0 -4.124815620E-02  5.879765765E-01  4.700742962E+00  4.846712629E+00  1.022849475E+00  0.00000E+00  9.000E+00
      11     1     3     3     0     0 -5.113526136E-01  4.443397864E-01  3.050484256E+00  3.124799802E+00  5.110000000E-04  0.00000E+00  9.000E+00
     -11     1     3     3     0     0  4.701044574E-01  1.436367901E-01  1.650258706E+00  1.721912828E+00  5.110000000E-04  0.00000E+00  9.000E+00
      -2     1     1     2     0   501  1.138289531E+00 -2.444527204E-01  2.830178031E+01  2.832571674E+01  0.000000000E+00  0.00000E+00  9.000E+00
      21     1     1     2   501   511 -1.097041375E+00 -3.435238561E-01  2.474292911E+02  2.474319616E+02  0.000000000E+00  0.00000E+00  9.000E+00
#rwgt            1          14   1109270.6764069151                3    18105926           0
<weights>
0.11145E+08
0.12547E+08
0.96933E+07
0.12837E+08
0.92837E+07
0.10773E+08
0.11449E+08
0.10943E+08
0.11421E+08
0.10801E+08
0.10757E+08
0.10968E+08
0.10952E+08
0.10807E+08
0.10772E+08
0.11193E+08
0.11295E+08
0.11522E+08
0.11543E+08
0.11522E+08
0.11500E+08
0.11568E+08
0.11562E+08
0.11520E+08
0.11282E+08
0.11334E+08
0.11350E+08
0.11513E+08
0.11377E+08
0.11558E+08
0.11566E+08
0.11174E+08
0.11247E+08
0.11135E+08
0.11190E+08
0.11043E+08
0.11289E+08
0.11211E+08
0.11011E+08
0.11180E+08
0.11114E+08
0.11216E+08
0.11071E+08
0.11553E+08
0.10773E+08
</weights>
</event>
<event>
      7  10001  1.11453E+07  1.20653E+00 -1.00000E+00  4.94926E-01
      21    -1     0     0   502   501  0.000000000E+00  0.000000000E+00  1.071959379E+01  1.071959379E+01  0.000000000E+00  0.00000E+00  9.000E+00
       3    -1     0     0   501     0  0.000000000E+00  0.000000000E+00 -7.927196807E-01  7.927196807E-01  0.000000000E+00  0.00000E+00  9.000E+00
      23     2     1     2     0     0 -2.036916625E-01 -3.354211505E-01 -3.312981905E-01  1.223047227E+00  1.109994769E+00  0.00000E+00  9.000E+00
      11     1     3     3     0     0 -2.873360910E-01 -1.551914914E-01 -7.177264045E-01  7.885289349E-01  5.110000000E-04  0.00000E+00  9.000E+00
     -11     1     3     3     0     0  8.364442848E-02 -1.802296591E-01  3.864282141E-01  4.345182921E-01  5.110000000E-04  0.00000E+00  9.000E+00
       3     1     1     2   511     0  1.717283974E-01  3.464466460E-01  2.394384085E+00  2.425405341E+00  0.000000000E+00  0.00000E+00  9.000E+00
      21     1     1     2   502   511  3.196326518E-02 -1.102549557E-02  7.863788215E+00  7.863860903E+00  0.000000000E+00  0.00000E+00  9.000E+00
#rwgt            2         192   608677.26188153704                3    18129862           0
<weights>
0.11145E+08
0.11306E+08
0.10734E+08
0.13741E+08
0.86006E+07
0.91702E+07
0.13910E+08
0.11192E+08
0.11094E+08
0.10822E+08
0.10823E+08
0.10996E+08
0.10971E+08
0.10842E+08
0.10830E+08
0.11233E+08
0.11159E+08
0.11336E+08
0.11755E+08
0.11693E+08
0.11327E+08
0.11484E+08
0.11537E+08
0.11857E+08
0.11105E+08
0.10915E+08
0.12955E+08
0.11308E+08
0.11557E+08
0.11461E+08
0.11522E+08
0.11203E+08
0.11196E+08
0.11143E+08
0.11172E+08
0.11233E+08
0.11074E+08
0.11135E+08
0.11077E+08
0.11171E+08
0.11123E+08
0.11192E+08
0.11096E+08
0.11502E+08
0.10817E+08
</weights>
</event>
<event>
      6  10001 -1.11453E+07  8.94427E-01 -1.00000E+00  1.36664E-01
      -2    -1     0     0     0   502  0.000000000E+00  0.000000000E+00  3.441857880E+01  3.441857880E+01  0.000000000E+00  0.00000E+00  9.000E+00
      21    -1     0     0   502   501  0.000000000E+00  0.000000000E+00 -2.023437851E-02  2.023437851E-02  0.000000000E+00  0.00000E+00  9.000E+00
      23     2     1     2     0     0  2.493369247E-01 -2.143432299E-01  3.171276369E+01  3.173317909E+01  1.089569994E+00  0.00000E+00  9.000E+00
      11     1     3     3     0     0  2.626020529E-01  7.951136307E-02  1.975748354E+00  1.994708930E+00  5.110000000E-04  0.00000E+00  9.000E+00
     -11     1     3     3     0     0 -1.326512815E-02 -2.938545930E-01  2.973701533E+01  2.973847016E+01  5.110000000E-04  0.00000E+00  9.000E+00
      -2     1     1     2     0   501 -2.493369247E-01  2.143432299E-01  2.685580737E+00  2.705634087E+00  0.000000000E+00  0.00000E+00  9.000E+00
#rwgt            1           7  -4907257.3790027378                3    18129923           0
<weights>
-.11145E+08
-.12861E+08
-.92783E+07
-.15641E+08
-.74346E+07
-.91644E+07
-.13909E+08
-.11171E+08
-.11121E+08
-.10822E+08
-.10811E+08
-.10961E+08
-.11005E+08
-.10839E+08
-.10822E+08
-.11226E+08
-.11212E+08
-.11464E+08
-.11506E+08
-.11494E+08
-.11441E+08
-.11504E+08
-.11523E+08
-.11415E+08
-.11329E+08
-.11287E+08
-.11357E+08
-.11437E+08
-.11374E+08
-.11482E+08
-.11516E+08
-.11184E+08
-.11217E+08
-.11137E+08
-.11178E+08
-.11208E+08
-.11102E+08
-.11135E+08
-.11081E+08
-.11167E+08
-.11127E+08
-.11186E+08
-.11103E+08
-.11508E+08
-.10812E+08
</weights>
</event>
<event>
      6  10001 -1.11453E+07  8.94427E-01 -1.00000E+00  1.78688E-01
      -3    -1     0     0     0   502  0.000000000E+00  0.000000000E+00  9.691399199E+01  9.691399199E+01  0.000000000E+00  0.00000E+00  9.000E+00
      21    -1     0     0   502   501  0.000000000E+00  0.000000000E+00 -1.142439840E-02  1.142439840E-02  0.000000000E+00  0.00000E+00  9.000E+00
      23     2     1     2     0     0 -2.568107439E-01  2.594674702E-01  8.593423318E+01  8.595100821E+01  1.658343981E+00  0.00000E+00  9.000E+00
      11     1     3     3     0     0  1.221829470E-01  9.215955578E-01  4.374258806E+01  4.375246596E+01  5.110000000E-04  0.00000E+00  9.000E+00
     -11     1     3     3     0     0 -3.789936909E-01 -6.621280875E-01  4.219164512E+01  4.219854225E+01  5.110000000E-04  0.00000E+00  9.000E+00
      -3     1     1     2     0   501  2.568107439E-01 -2.594674702E-01  1.096833441E+01  1.097440817E+01  0.000000000E+00  0.00000E+00  9.000E+00
#rwgt            1           5  -748199.22844129382                3    18131108           0
<weights>
-.11145E+08
-.12286E+08
-.98097E+07
-.14939E+08
-.78602E+07
-.91664E+07
-.13909E+08
-.11174E+08
-.11117E+08
-.10828E+08
-.10821E+08
-.10964E+08
-.11011E+08
-.10847E+08
-.10831E+08
-.11225E+08
-.11207E+08
-.11455E+08
-.11494E+08
-.11483E+08
-.11432E+08
-.11493E+08
-.11513E+08
-.11400E+08
-.11328E+08
-.11286E+08
-.11333E+08
-.11427E+08
-.11365E+08
-.11470E+08
-.11505E+08
-.11181E+08
-.11217E+08
-.11138E+08
-.11176E+08
-.11211E+08
-.11098E+08
-.11123E+08
-.11093E+08
-.11164E+08
-.11130E+08
-.11184E+08
-.11105E+08
-.11498E+08
-.10820E+08
</weights>
</event>
<event>
      6  10001 -1.11453E+07  8.94427E-01 -1.00000E+00  5.89286E-01
      21    -1     0     0   502   501  0.000000000E+00  0.000000000E+00  1.639881905E+00  1.639881905E+00  0.000000000E+00  0.00000E+00  9.000E+00
      -4    -1     0     0     0   502  0.000000000E+00  0.000000000E+00 -4.422728278E+00  4.422728278E+00  0.000000000E+00  0.00000E+00  9.000E+00
      23     2     1     2     0     0 -2.250839652E-01  1.991259440E-01 -4.202665323E+00  4.611334956E+00  1.873953127E+00  0.00000E+00  9.000E+00
      11     1     3     3     0     0  4.775511509E-01 -1.502357222E-01 -3.565650240E+00  3.600623248E+00  5.110000000E-04  0.00000E+00  9.000E+00
     -11     1     3     3     0     0 -7.026351161E-01  3.493616663E-01 -6.370150828E-01  1.010711708E+00  5.110000000E-04  0.00000E+00  9.000E+00
      -4     1     1     2     0   501  2.250839652E-01 -1.991259440E-01  1.419818950E+00  1.451275227E+00  0.000000000E+00  0.00000E+00  9.000E+00
#rwgt            1          12  -1286297.0801589920                3    18133214           0
<weights>
-.11145E+08
-.21711E+07
-.19896E+08
-.12786E+08
-.98888E+07
-.25731E+07
-.24037E+08
-.11207E+08
-.11086E+08
-.11098E+08
-.11199E+08
-.11082E+08
-.11203E+08
-.11161E+08
-.11194E+08
-.11173E+08
-.11023E+08
-.11075E+08
-.11086E+08
-.11079E+08
-.11083E+08
-.11051E+08
-.11104E+08
-.11035E+08
-.11196E+08
-.11098E+08
-.11124E+08
-.11022E+08
-.11076E+08
-.10999E+08
-.11062E+08
-.11066E+08
-.11201E+08
-.11175E+08
-.11101E+08
-.11230E+08
-.11065E+08
-.10763E+08
-.11538E+08
-.11050E+08
-.11229E+08
-.11135E+08
-.11156E+08
-.11111E+08
-.11160E+08
</weights>
</event>
<event>
      7  10001  1.11453E+07  8.94427E-01 -1.00000E+00  6.07649E-01
       4    -1     0     0   501     0  0.000000000E+00  0.000000000E+00  2.335835506E+00  2.335835506E+00  0.000000000E+00  0.00000E+00  9.000E+00
      21    -1     0     0   511   502  0.000000000E+00  0.000000000E+00 -9.103177192E+00  9.103177192E+00  0.000000000E+00  0.00000E+00  9.000E+00
      23     2     1     2     0     0 -9.699534264E-02  2.978710268E-01  2.095427564E+00  2.569754562E+00  1.454196200E+00  0.00000E+00  9.000E+00
      11     1     3     3     0     0  4.120580644E-01 -2.380388865E-01  1.666660566E-01  5.042144340E-01  5.110000000E-04  0.00000E+00  9.000E+00
     -11     1     3     3     0     0 -5.090534071E-01  5.359099133E-01  1.928761507E+00  2.065540128E+00  5.110000000E-04  0.00000E+00  9.000E+00
      21     1     1     2   501   502  7.487231100E-02 -2.288506156E-01 -7.938698802E+00  7.942349598E+00  2.528810911E-07  0.00000E+00  9.000E+00
       4     1     1     2   511     0  2.212303164E-02 -6.902041119E-02 -9.240704475E-01  9.269085379E-01  0.000000000E+00  0.00000E+00  9.000E+00
#rwgt            2         309   622619.13705767679                3    18151063           0
<weights>
0.11145E+08
0.11160E+08
0.10833E+08
0.13563E+08
0.86798E+07
0.91702E+07
0.13910E+08
0.11210E+08
0.11078E+08
0.10895E+08
0.10922E+08
0.10985E+08
0.11074E+08
0.10926E+08
0.10928E+08
0.11213E+08
0.11160E+08
0.11362E+08
0.11367E+08
0.11365E+08
0.11345E+08
0.11373E+08
0.11409E+08
0.11236E+08
0.11338E+08
0.11289E+08
0.11082E+08
0.11332E+08
0.11264E+08
0.11339E+08
0.11385E+08
0.11148E+08
0.11213E+08
0.11143E+08
0.11159E+08
0.11251E+08
0.11053E+08
0.10997E+08
0.11221E+08
0.11132E+08
0.11158E+08
0.11162E+08
0.11128E+08
0.11396E+08
0.10909E+08
</weights>
</event>
<event>
      7  10001  1.11453E+07  2.54122E+00 -1.00000E+00  3.14623E-01
      21    -1     0     0   502   511  0.000000000E+00  0.000000000E+00  6.367593012E+01  6.367593012E+01  0.000000000E+00  0.00000E+00  9.000E+00
       2    -1     0     0   501     0  0.000000000E+00  0.000000000E+00 -1.573920148E+01  1.573920148E+01  0.000000000E+00  0.00000E+00  9.000E+00
      23     2     1     2     0     0  2.225061176E-01 -9.692521098E-02 -1.121648246E+01  1.128164513E+01  1.186227061E+00  0.00000E+00  9.000E+00
      11     1     3     3     0     0  7.117028387E-01 -6.201829694E-02 -7.189818323E+00  7.225223524E+00  5.110000000E-04  0.00000E+00  9.000E+00
     -11     1     3     3     0     0 -4.891967211E-01 -3.490691403E-02 -4.026664138E+00  4.056421608E+00  5.110000000E-04  0.00000E+00  9.000E+00
       2     1     1     2   502     0  1.935739266E+00 -1.244636701E+00 -4.168088454E+00  4.761215012E+00  0.000000000E+00  0.00000E+00  9.000E+00
      21     1     1     2   501   511 -2.158245384E+00  1.341561912E+00  6.332129956E+01  6.337227145E+01  0.000000000E+00  0.00000E+00  9.000E+00
#rwgt            1          17   1804351.8094429143                3    18153252           0
<weights>
0.11145E+08
0.13445E+08
0.88211E+07
0.13265E+08
0.89160E+07
0.11173E+08
0.10835E+08
0.11151E+08
0.11134E+08
0.10890E+08
0.10899E+08
0.11083E+08
0.10921E+08
0.10906E+08
0.10904E+08
0.11034E+08
0.11438E+08
0.11274E+08
0.11570E+08
0.11574E+08
0.11255E+08
0.11414E+08
0.11425E+08
0.11333E+08
0.11298E+08
0.11331E+08
0.11065E+08
0.11557E+08
0.11019E+08
0.11409E+08
0.11382E+08
0.11162E+08
0.11208E+08
0.11073E+08
0.11274E+08
0.10972E+08
0.11334E+08
0.11045E+08
0.11149E+08
0.11115E+08
0.11165E+08
0.11255E+08
0.11028E+08
0.11414E+08
0.10897E+08
</weights>
</event>
<event>
      6  10001 -1.11453E+07  8.94427E-01 -1.00000E+00  5.81138E-01
      21    -1     0     0   502   501  0.000000000E+00  0.000000000E+00  1.510459976E-02  1.510459976E-02  0.000000000E+00  0.00000E+00  9.000E+00
       2    -1     0     0   501     0  0.000000000E+00  0.000000000E+00 -9.501907444E+01  9.501907444E+01  0.000000000E+00  0.00000E+00  9.000E+00
      23     2     1     2     0     0 -2.639352059E-03  5.970499438E-01 -6.198660643E+01  6.201141776E+01  1.649266807E+00  0.00000E+00  9.000E+00
      11     1     3     3     0     0  7.473842625E-01  4.154046306E-01 -2.077888210E+01  2.079646811E+01  5.110000000E-04  0.00000E+00  9.000E+00
     -11     1     3     3     0     0 -7.500236145E-01  1.816453132E-01 -4.120772432E+01  4.121494965E+01  5.110000000E-04  0.00000E+00  9.000E+00
       2     1     1     2   502     0  2.639352059E-03 -5.970499438E-01 -3.301736341E+01  3.302276127E+01  0.000000000E+00  0.00000E+00  9.000E+00
#rwgt            1          17  -5117296.5068527339                3    18157988           0
<weights>
-.11145E+08
-.12512E+08
-.96352E+07
-.15206E+08
-.77203E+07
-.91702E+07
-.13910E+08
-.11155E+08
-.11135E+08
-.11146E+08
-.11164E+08
-.11159E+08
-.11114E+08
-.11164E+08
-.11164E+08
-.11178E+08
-.11061E+08
-.11084E+08
-.11163E+08
-.11169E+08
-.11080E+08
-.11121E+08
-.11117E+08
-.11230E+08
-.11025E+08
-.11067E+08
-.11179E+08
-.11213E+08
-.10980E+08
-.11130E+08
-.11113E+08
-.11125E+08
-.11156E+08
-.11093E+08
-.11207E+08
-.11134E+08
-.11151E+08
-.11118E+08
-.11182E+08
-.11099E+08
-.11181E+08
-.11194E+08
-.11094E+08
-.11127E+08
-.11159E+08
</weights>
</event>
<event>
      7  10001 -1.11453E+07  1.77444E+00 -1.00000E+00  3.77707E-01
      21    -1     0     0   502   511  0.000000000E+00  0.000000000E+00  1.472903809E+01  1.472903809E+01  0.000000000E+00  0.00000E+00  9.000E+00
       4    -1     0     0   501     0  0.000000000E+00  0.000000000E+00 -1.591728543E+01  1.591728543E+01  0.000000000E+00  0.00000E+00  9.000E+00
      23     2     1     2     0     0  8.196797613E-01  2.041101507E-01 -1.186368379E+01  1.197619195E+01  1.403083993E+00  0.00000E+00  9.000E+00
      11     1     3     3     0     0  1.997207318E-02 -5.396086530E-01 -4.407869255E+00  4.440820646E+00  5.110000000E-04  0.00000E+00  9.000E+00
     -11     1     3     3     0     0  7.997076882E-01  7.437188037E-01 -7.455814532E+00  7.535371301E+00  5.110000000E-04  0.00000E+00  9.000E+00
       4     1     1     2   502     0  7.505064757E-01  6.224220549E-01 -3.883210234E+00  4.003747109E+00  0.000000000E+00  0.00000E+00  9.000E+00
      21     1     1     2   501   511 -1.570186237E+00 -8.265322056E-01  1.455864667E+01  1.466638447E+01  1.685873940E-07  0.00000E+00  9.000E+00
#rwgt            1          19  -1294292.1742653227                3    18158516           0
<weights>
-.11145E+08
-.93350E+07
-.12382E+08
-.15467E+08
-.76877E+07
-.66070E+07
-.17845E+08
-.11210E+08
-.11080E+08
-.10986E+08
-.11046E+08
-.11017E+08
-.11148E+08
-.11035E+08
-.11049E+08
-.11188E+08
-.11107E+08
-.11234E+08
-.11231E+08
-.11226E+08
-.11229E+08
-.11229E+08
-.11260E+08
-.11147E+08
-.11271E+08
-.11227E+08
-.11085E+08
-.11206E+08
-.11164E+08
-.11186E+08
-.11237E+08
-.11110E+08
-.11209E+08
-.11157E+08
-.11134E+08
-.11257E+08
-.11045E+08
-.10891E+08
-.11389E+08
-.11089E+08
-.11197E+08
-.11139E+08
-.11152E+08
-.11268E+08
-.11021E+08
</weights>
</event>
<event>
      6  10001 -1.11453E+07  8.94427E-01 -1.00000E+00  5.31102E-01
      21    -1     0     0   502   501  0.000000000E+00  0.000000000E+00  5.030453209E-03  5.030453209E-03  0.000000000E+00  0.00000E+00  9.000E+00
       1    -1     0     0   501     0  0.000000000E+00  0.000000000E+00 -5.426623862E+02  5.426623862E+02  0.000000000E+00  0.00000E+00  9.000E+00
      23     2     1     2     0     0 -2.027430357E-01 -1.730230480E-01 -3.691009862E+02  3.691108424E+02  2.684204281E+00  0.00000E+00  9.000E+00
      11     1     3     3     0     0  2.918151342E-01  2.926333352E-01 -3.450952740E+02  3.450955215E+02  5.110000000E-04  0.00000E+00  9.000E+00
     -11     1     3     3     0     0 -4.945581698E-01 -4.656563832E-01 -2.400571217E+01  2.401532096E+01  5.110000000E-04  0.00000E+00  9.000E+00
       1     1     1     2   502     0  2.027430357E-01  1.730230480E-01 -1.735563696E+02  1.735565743E+02  0.000000000E+00  0.00000E+00  9.000E+00
#rwgt            1          16  -427407.20483072434                3    18162255           0
<weights>
-.11145E+08
-.11290E+08
-.10911E+08
-.13722E+08
-.87426E+07
-.91702E+07
-.13910E+08
-.11332E+08
-.10971E+08
-.11050E+08
-.11369E+08
-.12201E+08
-.10090E+08
-.11166E+08
-.11179E+08
-.10301E+08
-.12084E+08
-.98686E+07
-.12818E+08
-.13133E+08
-.96810E+07
-.11225E+08
-.10981E+08
-.11712E+08
-.10504E+08
-.10179E+08
-.11743E+08
-.12708E+08
-.93966E+07
-.11381E+08
-.10929E+08
-.10930E+08
-.11359E+08
-.98563E+07
-.12651E+08
-.11153E+08
-.11138E+08
-.11130E+08
-.11183E+08
-.11384E+08
-.10930E+08
-.11144E+08
-.11145E+08
-.11110E+08
-.11182E+08
</weights>
</event>
<event>
      6  10001  1.11453E+07  8.94427E-01 -1.00000E+00  5.83959E-01
       3    -1     0     0   501     0  0.000000000E+00  0.000000000E+00  1.803305365E-01  1.803305365E-01  0.000000000E+00  0.00000E+00  9.000E+00
      -3    -1     0     0     0   502  0.000000000E+00  0.000000000E+00 -5.573587172E+00  5.573587172E+00  0.000000000E+00  0.00000E+00  9.000E+00
      23     2     1     2     0     0 -2.390630583E-01 -4.019834293E-01 -4.760143336E+00  4.966787304E+00  1.338383250E+00  0.00000E+00  9.000E+00
      11     1     3     3     0     0  4.334313636E-01 -3.279147739E-01 -3.447162554E+00  3.489745088E+00  5.110000000E-04  0.00000E+00  9.000E+00
     -11     1     3     3     0     0 -6.724944219E-01 -7.406865545E-02 -1.312980782E+00  1.477042216E+00  5.110000000E-04  0.00000E+00  9.000E+00
      21     1     1     2   501   502  2.390630583E-01  4.019834293E-01 -6.331132999E-01  7.871304046E-01  2.980232239E-08  0.00000E+00  9.000E+00
#rwgt            1          25   65893.172193594277                3    18162718           0
<weights>
0.11145E+08
0.14839E+08
0.79631E+07
0.11058E+08
0.10169E+08
0.13501E+08
0.72615E+07
0.11187E+08
0.11096E+08
0.10705E+08
0.10728E+08
0.11115E+08
0.10717E+08
0.10724E+08
0.10712E+08
0.11482E+08
0.10756E+08
0.11165E+08
0.12317E+08
0.12239E+08
0.11149E+08
0.11584E+08
0.11753E+08
0.12665E+08
0.10461E+08
0.93656E+07
0.15304E+08
0.10918E+08
0.12372E+08
0.11554E+08
0.11715E+08
0.11307E+08
0.11134E+08
0.11167E+08
0.11163E+08
0.11261E+08
0.11047E+08
0.11234E+08
0.10896E+08
0.11231E+08
0.11065E+08
0.11260E+08
0.11024E+08
0.11632E+08
0.10704E+08
</weights>
</event>
<event>
      6  10001  1.11453E+07  8.94427E-01 -1.00000E+00  5.98854E-01
       2    -1     0     0   501     0  0.000000000E+00  0.000000000E+00  7.622352972E+00  7.622352972E+00  0.000000000E+00  0.00000E+00  9.000E+00
      -2    -1     0     0     0   502  0.000000000E+00  0.000000000E+00 -2.722017097E-01  2.722017097E-01  0.000000000E+00  0.00000E+00  9.000E+00
      23     2     1     2     0     0  2.942271335E-02 -6.397062093E-01  4.700226695E+00  5.168350371E+00  2.051737031E+00  0.00000E+00  9.000E+00
      11     1     3     3     0     0  5.007754922E-01  6.166713093E-01  1.479923094E+00  1.679652411E+00  5.110000000E-04  0.00000E+00  9.000E+00
     -11     1     3     3     0     0 -4.713527788E-01 -1.256377519E+00  3.220303601E+00  3.488697960E+00  5.110000000E-04  0.00000E+00  9.000E+00
      21     1     1     2   501   502 -2.942271335E-02  6.397062093E-01  2.649924568E+00  2.726204311E+00  0.000000000E+00  0.00000E+00  9.000E+00
#rwgt            1          23   492442.70342226414                3    18164187           0
<weights>
0.11145E+08
0.13505E+08
0.90012E+07
0.11830E+08
0.99110E+07
0.12118E+08
0.93845E+07
0.10870E+08
0.11485E+08
0.10794E+08
0.10735E+08
0.10972E+08
0.10928E+08
0.10795E+08
0.10752E+08
0.11173E+08
0.11338E+08
0.11552E+08
0.11542E+08
0.11520E+08
0.11530E+08
0.11594E+08
0.11577E+08
0.11538E+08
0.11273E+08
0.11374E+08
0.11248E+08
0.11551E+08
0.11363E+08
0.11589E+08
0.11584E+08
0.11165E+08
0.11263E+08
0.11138E+08
0.11190E+08
0.10957E+08
0.11380E+08
0.11239E+08
0.10982E+08
0.11185E+08
0.11108E+08
0.11233E+08
0.11053E+08
0.11570E+08
0.10759E+08
</weights>
</event>
<event>
      6  10001 -1.11453E+07  8.94427E-01 -1.00000E+00  5.41001E-01
       2    -1     0     0   501     0  0.000000000E+00  0.000000000E+00  1.802081969E+02  1.802081969E+02  0.000000000E+00  0.00000E+00  9.000E+00
      21    -1     0     0   502   501  0.000000000E+00  0.000000000E+00 -8.599087283E-03  8.599087283E-03  0.000000000E+00  0.00000E+00  9.000E+00
      23     2     1     2     0     0 -5.194572675E-01 -1.671216060E-01  1.675527832E+02  1.675582145E+02  1.233824161E+00  0.00000E+00  9.000E+00
      11     1     3     3     0     0 -7.972690529E-01  2.472927577E-01  1.166354762E+02  1.166384632E+02  5.110000000E-04  0.00000E+00  9.000E+00
     -11     1     3     3     0     0  2.778117854E-01 -4.144143637E-01  5.091730702E+01  5.091975130E+01  5.110000000E-04  0.00000E+00  9.000E+00
       2     1     1     2   502     0  5.194572675E-01  1.671216060E-01  1.264681463E+01  1.265858151E+01  0.000000000E+00  0.00000E+00  9.000E+00
#rwgt            1          24  -19177754.366946079                3    18166224           0
<weights>
-.11145E+08
-.12162E+08
-.99726E+07
-.14789E+08
-.79908E+07
-.91658E+07
-.13909E+08
-.11181E+08
-.11110E+08
-.10843E+08
-.10844E+08
-.10970E+08
-.11023E+08
-.10865E+08
-.10853E+08
-.11223E+08
-.11195E+08
-.11432E+08
-.11468E+08
-.11458E+08
-.11411E+08
-.11464E+08
-.11490E+08
-.11367E+08
-.11327E+08
-.11279E+08
-.11293E+08
-.11402E+08
-.11345E+08
-.11439E+08
-.11477E+08
-.11173E+08
-.11217E+08
-.11141E+08
-.11171E+08
-.11217E+08
-.11091E+08
-.11092E+08
-.11126E+08
-.11156E+08
-.11136E+08
-.11180E+08
-.11109E+08
-.11475E+08
-.10841E+08
</weights>
</event>
<event>
      7  10001  1.11453E+07  1.64917E+00 -1.00000E+00  3.93960E-01
      -2    -1     0     0     0   502  0.000000000E+00  0.000000000E+00  1.555275645E+02  1.555275645E+02  0.000000000E+00  0.00000E+00  9.000E+00
      21    -1     0     0   502   511  0.000000000E+00  0.000000000E+00 -5.563608584E+02  5.563608584E+02  0.000000000E+00  0.00000E+00  9.000E+00
      23     2     1     2     0     0 -8.059724657E-01  9.767629179E-01  1.402452818E+02  1.403526017E+02  5.339484622E+00  0.00000E+00  9.000E+00
      11     1     3     3     0     0  1.441580205E+00  6.665775868E-01  1.135415759E+02  1.135526835E+02  5.110000000E-04  0.00000E+00  9.000E+00
     -11     1     3     3     0     0 -2.247552671E+00  3.101853311E-01  2.670370591E+01  2.679991824E+01  5.110000000E-04  0.00000E+00  9.000E+00
      -2     1     1     2     0   501  1.347083979E+00  5.811091453E-01  1.519206411E+01  1.526273682E+01  0.000000000E+00  0.00000E+00  9.000E+00
      21     1     1     2   501   511 -5.411115131E-01 -1.557872063E+00 -5.562706398E+02  5.562730844E+02  1.078959322E-05  0.00000E+00  9.000E+00
#rwgt            1           7   968237.28221305402                3    18168413           0
<weights>
0.11145E+08
0.14027E+08
0.79199E+07
0.13418E+08
0.88046E+07
0.11671E+08
0.10070E+08
0.11142E+08
0.11153E+08
0.10755E+08
0.10711E+08
0.10936E+08
0.10948E+08
0.10759E+08
0.10726E+08
0.11236E+08
0.11264E+08
0.11559E+08
0.11628E+08
0.11609E+08
0.11529E+08
0.11623E+08
0.11627E+08
0.11559E+08
0.11336E+08
0.11311E+08
0.11547E+08
0.11539E+08
0.11463E+08
0.11611E+08
0.11635E+08
0.11216E+08
0.11221E+08
0.11130E+08
0.11197E+08
0.11181E+08
0.11134E+08
0.11257E+08
0.10959E+08
0.11198E+08
0.11100E+08
0.11203E+08
0.11085E+08
0.11609E+08
0.10723E+08
</weights>
</event>
<event>
      6  10001  1.11453E+07  8.94427E-01 -1.00000E+00  5.92994E-01
       2    -1     0     0   501     0  0.000000000E+00  0.000000000E+00  1.359357044E+01  1.359357044E+01  0.000000000E+00  0.00000E+00  9.000E+00
      -2    -1     0     0     0   502  0.000000000E+00  0.000000000E+00 -9.364411030E-02  9.364411030E-02  0.000000000E+00  0.00000E+00  9.000E+00
      23     2     1     2     0     0 -3.291622146E-01  2.274395743E-01  8.989400470E+00  9.158978685E+00  1.708067099E+00  0.00000E+00  9.000E+00
      11     1     3     3     0     0  3.826035508E-01  7.605383998E-01  4.968831086E+00  5.041238613E+00  5.110000000E-04  0.00000E+00  9.000E+00
     -11     1     3     3     0     0 -7.117657654E-01 -5.330988255E-01  4.020569385E+00  4.117740072E+00  5.110000000E-04  0.00000E+00  9.000E+00
      21     1     1     2   501   502  3.291622146E-01 -2.274395743E-01  4.510525861E+00  4.528235867E+00  5.960464478E-08  0.00000E+00  9.000E+00
#rwgt            1          23   248393.19204957256                3    18210127           0
<weights>
0.11145E+08
0.15315E+08
0.80292E+07
0.35479E+07
0.15192E+08
0.18803E+08
-.87759E+06
0.10095E+08
0.12530E+08
0.10705E+08
0.10525E+08
0.10988E+08
0.10739E+08
0.10665E+08
0.10557E+08
0.11071E+08
0.11617E+08
0.11758E+08
0.11737E+08
0.11677E+08
0.11741E+08
0.11842E+08
0.11741E+08
0.12002E+08
0.11098E+08
0.11495E+08
0.11589E+08
0.11819E+08
0.11430E+08
0.11880E+08
0.11787E+08
0.11146E+08
0.11356E+08
0.11125E+08
0.11239E+08
0.10426E+08
0.11988E+08
0.11531E+08
0.10709E+08
0.11237E+08
0.11056E+08
0.11333E+08
0.10946E+08
0.11752E+08
0.10603E+08
</weights>
</event>
<event>
      6  10001  1.11453E+07  8.94427E-01 -1.00000E+00  5.93841E-01
       2    -1     0     0   501     0  0.000000000E+00  0.000000000E+00  1.377653354E-01  1.377653354E-01  0.000000000E+00  0.00000E+00  9.000E+00
      -2    -1     0     0     0   502  0.000000000E+00  0.000000000E+00 -1.429456863E+01  1.429456863E+01  0.000000000E+00  0.00000E+00  9.000E+00
      23     2     1     2     0     0  2.931015472E-03  3.578041945E-01 -1.396408899E+01  1.402592132E+01  1.265960170E+00  0.00000E+00  9.000E+00
      11     1     3     3     0     0  1.908334745E-01  7.449058787E-01 -1.140628632E+01  1.143217696E+01  5.110000000E-04  0.00000E+00  9.000E+00
     -11     1     3     3     0     0 -1.879024590E-01 -3.871016842E-01 -2.557802670E+00  2.593744361E+00  5.110000000E-04  0.00000E+00  9.000E+00
      21     1     1     2   501   502 -2.931015472E-03 -3.578041945E-01 -1.927143004E-01  4.064126401E-01  3.161013638E-08  0.00000E+00  9.000E+00
#rwgt            1          23   667823.13236300473                3    18211435           0
<weights>
0.11145E+08
0.12464E+08
0.97766E+07
0.12962E+08
0.91490E+07
0.10590E+08
0.11731E+08
0.11178E+08
0.11107E+08
0.10842E+08
0.10863E+08
0.10989E+08
0.10977E+08
0.10867E+08
0.10867E+08
0.11119E+08
0.11327E+08
0.11442E+08
0.11416E+08
0.11394E+08
0.11434E+08
0.11435E+08
0.11487E+08
0.11324E+08
0.11341E+08
0.11430E+08
0.11005E+08
0.11433E+08
0.11197E+08
0.11405E+08
0.11439E+08
0.11100E+08
0.11281E+08
0.11209E+08
0.11102E+08
0.10982E+08
0.11323E+08
0.10983E+08
0.11202E+08
0.11148E+08
0.11135E+08
0.11250E+08
0.11034E+08
0.11456E+08
0.10856E+08
</weights>
</event>
<event>
      7  10001  1.11453E+07  8.34277E+00 -1.00000E+00  2.04656E-01
      21    -1     0     0   502   501  0.000000000E+00  0.000000000E+00  8.827307622E-02  8.827307622E-02  0.000000000E+00  0.00000E+00  9.000E+00
       2    -1     0     0   501     0  0.000000000E+00  0.000000000E+00 -2.681392765E+02  2.681392765E+02  0.000000000E+00  0.00000E+00  9.000E+00
      23     2     1     2     0     0  4.965160132E-01 -1.133983766E+00 -2.270549188E+02  2.270765798E+02  2.881749860E+00  0.00000E+00  9.000E+00
      11     1     3     3     0     0  7.082437521E-01  5.531966287E-01 -2.804208276E+01  2.805647949E+01  5.110000000E-04  0.00000E+00  9.000E+00
     -11     1     3     3     0     0 -2.117277388E-01 -1.687180395E+00 -1.990128361E+02  1.990201003E+02  5.110000000E-04  0.00000E+00  9.000E+00
       2     1     1     2   511     0  4.523158001E-01 -3.218995581E-02 -3.362856664E+01  3.363162381E+01  0.000000000E+00  0.00000E+00  9.000E+00
      21     1     1     2   502   511 -9.488318133E-01  1.166173722E+00 -7.367517999E+00  7.519346010E+00  3.153981341E-07  0.00000E+00  9.000E+00
#rwgt            2         189   13505295.503403541                3    18218236           0
<weights>
0.11145E+08
0.10790E+08
0.11365E+08
0.13113E+08
0.91064E+07
0.91702E+07
0.13910E+08
0.11127E+08
0.11162E+08
0.11171E+08
0.11164E+08
0.11065E+08
0.11244E+08
0.11166E+08
0.11164E+08
0.11330E+08
0.10862E+08
0.11311E+08
0.10866E+08
0.10832E+08
0.11328E+08
0.11104E+08
0.11152E+08
0.11142E+08
0.11098E+08
0.11185E+08
0.11112E+08
0.10944E+08
0.11319E+08
0.11092E+08
0.11154E+08
0.11039E+08
0.11245E+08
0.11311E+08
0.10929E+08
0.11129E+08
0.11157E+08
0.11169E+08
0.11123E+08
0.11190E+08
0.11103E+08
0.11155E+08
0.11135E+08
0.11121E+08
0.11168E+08
</weights>
</event>
<event>
      6  10001 -1.11453E+07  8.94427E-01 -1.00000E+00  1.45732E-01
      -2    -1     0     0     0   502  0.000000000E+00  0.000000000E+00  1.110233489E+02  1.110233489E+02  0.000000000E+00  0.00000E+00  9.000E+00
      21    -1     0     0   502   501  0.000000000E+00  0.000000000E+00 -1.637107221E-02  1.637107221E-02  0.000000000E+00  0.00000E+00  9.000E+00
      23     2     1     2     0     0  1.214425996E-01  4.857058133E-01  9.643130695E+01  9.645545311E+01  2.099241685E+00  0.00000E+00  9.000E+00
      11     1     3     3     0     0  3.106624000E-01  4.538436702E-01  6.305104548E+00  6.329046439E+00  5.110000000E-04  0.00000E+00  9.000E+00
     -11     1     3     3     0     0 -1.892198004E-01  3.186214306E-02  9.012620240E+01  9.012640667E+01  5.110000000E-04  0.00000E+00  9.000E+00
      -2     1     1     2     0   501 -1.214425996E-01 -4.857058133E-01  1.457567087E+01  1.458426685E+01  0.000000000E+00  0.00000E+00  9.000E+00
#rwgt            1           7  -4371156.3304090528                3    18218829           0
<weights>
-.11145E+08
-.12485E+08
-.95814E+07
-.15182E+08
-.76774E+07
-.91657E+07
-.13909E+08
-.11177E+08
-.11114E+08
-.10836E+08
-.10833E+08
-.10967E+08
-.11017E+08
-.10857E+08
-.10843E+08
-.11224E+08
-.11200E+08
-.11443E+08
-.11481E+08
-.11470E+08
-.11421E+08
-.11478E+08
-.11500E+08
-.11385E+08
-.11326E+08
-.11281E+08
-.11320E+08
-.11414E+08
-.11355E+08
-.11454E+08
-.11491E+08
-.11177E+08
-.11217E+08
-.11140E+08
-.11173E+08
-.11213E+08
-.11096E+08
-.11108E+08
-.11112E+08
-.11160E+08
-.11133E+08
-.11182E+08
-.11107E+08
-.11486E+08
-.10831E+08
</weights>
</event>
<event>
      6  10001 -1.11453E+07  8.94427E-01 -1.00000E+00  5.75305E-01
      21    -1     0     0   502   501  0.000000000E+00  0.000000000E+00  1.257272552E-02  1.257272552E-02  0.000000000E+00  0.00000E+00  9.000E+00
       1    -1     0     0   501     0  0.000000000E+00  0.000000000E+00 -1.157176400E+02  1.157176400E+02  0.000000000E+00  0.00000E+00  9.000E+00
      23     2     1     2     0     0 -3.308156658E-01  2.540419856E-01 -1.111020239E+02  1.111083100E+02  1.105831790E+00  0.00000E+00  9.000E+00
      11     1     3     3     0     0 -1.610798664E-01  1.486709971E-01 -1.078136396E+02  1.078138625E+02  5.110000000E-04  0.00000E+00  9.000E+00
     -11     1     3     3     0     0 -1.697357994E-01  1.053709885E-01 -3.288384249E+00  3.294447528E+00  5.110000000E-04  0.00000E+00  9.000E+00
       1     1     1     2   502     0  3.308156658E-01 -2.540419856E-01 -4.603043393E+00  4.621902726E+00  0.000000000E+00  0.00000E+00  9.000E+00
#rwgt            1          16  -2653424.9787310031                3    18219615           0
<weights>
-.11145E+08
-.12061E+08
-.10076E+08
-.14658E+08
-.80737E+07
-.91702E+07
-.13910E+08
-.11213E+08
-.11078E+08
-.11170E+08
-.11183E+08
-.11164E+08
-.11089E+08
-.11186E+08
-.11190E+08
-.10524E+08
-.11841E+08
-.10781E+08
-.11416E+08
-.11443E+08
-.10742E+08
-.11134E+08
-.11038E+08
-.11281E+08
-.10928E+08
-.10986E+08
-.11207E+08
-.11259E+08
-.10789E+08
-.11137E+08
-.11067E+08
-.11104E+08
-.11168E+08
-.10802E+08
-.11459E+08
-.11089E+08
-.11187E+08
-.11107E+08
-.11201E+08
-.11189E+08
-.11096E+08
-.11223E+08
-.11061E+08
-.11100E+08
-.11183E+08
</weights>
</event>
<event>
      6  10001 -1.11453E+07  8.94427E-01 -1.00000E+00  5.59124E-01
      21    -1     0     0   502   501  0.000000000E+00  0.000000000E+00  1.218685297E-02  1.218685297E-02  0.000000000E+00  0.00000E+00  9.000E+00
       1    -1     0     0   501     0  0.000000000E+00  0.000000000E+00 -1.551373957E+02  1.551373957E+02  0.000000000E+00  0.00000E+00  9.000E+00
      23     2     1     2     0     0  2.503532539E-02  4.822824438E-01 -1.485533752E+02  1.485600286E+02  1.320457058E+00  0.00000E+00  9.000E+00
      11     1     3     3     0     0  4.448904715E-01  4.310153826E-01 -1.313289247E+02  1.313303855E+02  5.110000000E-04  0.00000E+00  9.000E+00
     -11     1     3     3     0     0 -4.198551461E-01  5.126706121E-02 -1.722445049E+01  1.722964310E+01  5.110000000E-04  0.00000E+00  9.000E+00
       1     1     1     2   502     0 -2.503532539E-02 -4.822824438E-01 -6.571833712E+00  6.589553965E+00  0.000000000E+00  0.00000E+00  9.000E+00
#rwgt            1          16  -2794736.0503007425                3    18220305           0
<weights>
-.11145E+08
-.11964E+08
-.10173E+08
-.14541E+08
-.81509E+07
-.91702E+07
-.13910E+08
-.11215E+08
-.11076E+08
-.11182E+08
-.11208E+08
-.11254E+08
-.11008E+08
-.11196E+08
-.11201E+08
-.10411E+08
-.12000E+08
-.10654E+08
-.11572E+08
-.11629E+08
-.10597E+08
-.11137E+08
-.11018E+08
-.11331E+08
-.10863E+08
-.10893E+08
-.11263E+08
-.11377E+08
-.10646E+08
-.11157E+08
-.11044E+08
-.11100E+08
-.11171E+08
-.10672E+08
-.11613E+08
-.11110E+08
-.11166E+08
-.11146E+08
-.11155E+08
-.11221E+08
-.11068E+08
-.11220E+08
-.11065E+08
-.11086E+08
-.11198E+08
</weights>
</event>
<event>
      7  10001  1.11453E+07  8.94427E-01 -1.00000E+00  6.07649E-01
      21    -1     0     0   511   502  0.000000000E+00  0.000000000E+00  1.237086186E+00  1.237086186E+00  0.000000000E+00  0.00000E+00  9.000E+00
       2    -1     0     0   501     0  0.000000000E+00  0.000000000E+00 -3.563312897E+00  3.563312897E+00  0.000000000E+00  0.00000E+00  9.000E+00
      23     2     1     2     0     0  4.195664616E-01  1.396328374E-01 -2.227476947E+00  2.482194226E+00  1.002048544E+00  0.00000E+00  9.000E+00
      11     1     3     3     0     0 -3.089719523E-01  1.874086370E-01 -6.427224939E-01  7.373453261E-01  5.110000000E-04  0.00000E+00  9.000E+00
     -11     1     3     3     0     0  7.285384139E-01 -4.777579960E-02 -1.584754453E+00  1.744848900E+00  5.110000000E-04  0.00000E+00  9.000E+00
      21     1     1     2   501   502 -1.054928851E+00 -5.113098975E-01  5.879918577E-01  1.311505668E+00  2.107342426E-08  0.00000E+00  9.000E+00
       2     1     1     2   511     0  6.353623895E-01  3.716770601E-01 -6.867416213E-01  1.006699189E+00  0.000000000E+00  0.00000E+00  9.000E+00
#rwgt            2         190   4408323.7098325053                3    18221673           0
<weights>
0.11145E+08
0.11584E+08
0.10435E+08
0.14078E+08
0.83610E+07
0.91702E+07
0.13910E+08
0.11126E+08
0.11162E+08
0.10872E+08
0.10867E+08
0.11007E+08
0.10999E+08
0.10889E+08
0.10877E+08
0.11154E+08
0.11284E+08
0.11394E+08
0.11453E+08
0.11448E+08
0.11375E+08
0.11442E+08
0.11453E+08
0.11321E+08
0.11321E+08
0.11334E+08
0.11076E+08
0.11451E+08
0.11223E+08
0.11424E+08
0.11436E+08
0.11157E+08
0.11224E+08
0.11125E+08
0.11196E+08
0.11095E+08
0.11216E+08
0.11081E+08
0.11127E+08
0.11143E+08
0.11146E+08
0.11205E+08
0.11082E+08
0.11445E+08
0.10869E+08
</weights>
</event>
<event>
      7  10001  1.11453E+07  2.24010E+00 -1.00000E+00  3.34148E-01
      -2    -1     0     0     0   502  0.000000000E+00  0.000000000E+00  2.508909128E+00  2.508909128E+00  0.000000000E+00  0.00000E+00  9.000E+00
       2    -1     0     0   501     0  0.000000000E+00  0.000000000E+00 -3.345890049E+00  3.345890049E+00  0.000000000E+00  0.00000E+00  9.000E+00
      23     2     1     2     0     0 -3.998960601E-02  3.536912986E-01 -1.792963762E+00  4.737210914E+00  4.370326245E+00  0.00000E+00  9.000E+00
      11     1     3     3     0     0  1.316590203E+00  1.860151895E+00 -1.392772519E+00  2.670840764E+00  5.110000000E-04  0.00000E+00  9.000E+00
     -11     1     3     3     0     0 -1.356579809E+00 -1.506460596E+00 -4.001912427E-01  2.066370150E+00  5.110000000E-04  0.00000E+00  9.000E+00
      21     1     1     2   511   502  2.543790834E-02  3.552486333E-02 -3.294679731E-02  5.472288870E-02  9.313225746E-10  0.00000E+00  9.000E+00
      21     1     1     2   501   511  1.455169767E-02 -3.892161619E-01  9.889296384E-01  1.062865374E+00  3.799065585E-08  0.00000E+00  9.000E+00
#rwgt            1           8   703385.63088814483                3    18224147           0
<weights>
0.11145E+08
0.13534E+08
0.89406E+07
0.11304E+08
0.10381E+08
0.12573E+08
0.86868E+07
0.10972E+08
0.11320E+08
0.10799E+08
0.10739E+08
0.11010E+08
0.10881E+08
0.10795E+08
0.10756E+08
0.11092E+08
0.11463E+08
0.11509E+08
0.11597E+08
0.11585E+08
0.11485E+08
0.11595E+08
0.11573E+08
0.11469E+08
0.11331E+08
0.11436E+08
0.11052E+08
0.11645E+08
0.11228E+08
0.11599E+08
0.11567E+08
0.11171E+08
0.11254E+08
0.11108E+08
0.11238E+08
0.10869E+08
0.11458E+08
0.11225E+08
0.10954E+08
0.11173E+08
0.11115E+08
0.11266E+08
0.11018E+08
0.11565E+08
0.10765E+08
</weights>
</event>
<event>
      6  10001 -1.11453E+07  8.94427E-01 -1.00000E+00  3.72621E-01
      21    -1     0     0   502   501  0.000000000E+00  0.000000000E+00  5.340989233E-03  5.340989233E-03  0.000000000E+00  0.00000E+00  9.000E+00
       1    -1     0     0   501     0  0.000000000E+00  0.000000000E+00 -2.640090973E+02  2.640090973E+02  0.000000000E+00  0.00000E+00  9.000E+00
      23     2     1     2     0     0  2.923613822E-01  1.180670790E-01 -2.581017306E+02  2.581039965E+02  1.034523971E+00  0.00000E+00  9.000E+00
      11     1     3     3     0     0  1.404453318E-01  5.728164739E-01 -1.613493139E+02  1.613503919E+02  5.110000000E-04  0.00000E+00  9.000E+00
     -11     1     3     3     0     0  1.519160503E-01 -4.547493950E-01 -9.675241669E+01  9.675360464E+01  5.110000000E-04  0.00000E+00  9.000E+00
       1     1     1     2   502     0 -2.923613822E-01 -1.180670790E-01 -5.902025716E+00  5.910441825E+00  0.000000000E+00  0.00000E+00  9.000E+00
#rwgt            1          16  -2467959.7594883391                3    18226283           0
<weights>
-.11145E+08
-.11459E+08
-.10715E+08
-.13927E+08
-.85852E+07
-.91702E+07
-.13910E+08
-.11238E+08
-.11056E+08
-.11159E+08
-.11254E+08
-.11504E+08
-.10757E+08
-.11189E+08
-.11200E+08
-.10244E+08
-.12240E+08
-.10388E+08
-.11971E+08
-.12105E+08
-.10288E+08
-.11165E+08
-.11003E+08
-.11453E+08
-.10744E+08
-.10681E+08
-.11399E+08
-.11732E+08
-.10284E+08
-.11224E+08
-.11010E+08
-.11065E+08
-.11209E+08
-.10390E+08
-.11963E+08
-.11156E+08
-.11127E+08
-.11176E+08
-.11122E+08
-.11286E+08
-.11011E+08
-.11203E+08
-.11082E+08
-.11087E+08
-.11201E+08
</weights>
</event>
<event>
      7  10001  1.11453E+07  1.53878E+00 -1.00000E+00  4.10697E-01
       2    -1     0     0   501     0  0.000000000E+00  0.000000000E+00  1.172525162E-01  1.172525162E-01  0.000000000E+00  0.00000E+00  9.000E+00
      21    -1     0     0   502   501  0.000000000E+00  0.000000000E+00 -5.814948593E+01  5.814948593E+01  0.000000000E+00  0.00000E+00  9.000E+00
      23     2     1     2     0     0 -5.621861599E-01  3.967132627E-01 -5.452130644E+01  5.458596756E+01  2.565455873E+00  0.00000E+00  9.000E+00
      11     1     3     3     0     0 -2.975568317E-01 -7.885083476E-01 -4.140139096E+01  4.140996811E+01  5.110000000E-04  0.00000E+00  9.000E+00
     -11     1     3     3     0     0 -2.646293282E-01  1.185221610E+00 -1.311991548E+01  1.317599945E+01  5.110000000E-04  0.00000E+00  9.000E+00
       2     1     1     2   511     0  3.279940367E-01 -3.150744801E-01 -3.359579268E+00  3.390224901E+00  0.000000000E+00  0.00000E+00  9.000E+00
      21     1     1     2   502   511  2.341921233E-01 -8.163878261E-02 -1.513477038E-01  2.905459841E-01  6.891787052E-08  0.00000E+00  9.000E+00
#rwgt            2         248   401858.92026887246                3    18227877           0
<weights>
0.11145E+08
0.10658E+08
0.11559E+08
0.12954E+08
0.92620E+07
0.91702E+07
0.13910E+08
0.11203E+08
0.11088E+08
0.11034E+08
0.11098E+08
0.11032E+08
0.11184E+08
0.11092E+08
0.11103E+08
0.11176E+08
0.11087E+08
0.11181E+08
0.11157E+08
0.11151E+08
0.11183E+08
0.11171E+08
0.11179E+08
0.11119E+08
0.11223E+08
0.11202E+08
0.11088E+08
0.11159E+08
0.11120E+08
0.11128E+08
0.11174E+08
0.11099E+08
0.11202E+08
0.11158E+08
0.11129E+08
0.11254E+08
0.11046E+08
0.10881E+08
0.11439E+08
0.11074E+08
0.11211E+08
0.11128E+08
0.11164E+08
0.11209E+08
0.11073E+08
</weights>
</event>
<event>
      6  10001 -1.11453E+07  8.94427E-01 -1.00000E+00  5.20469E-01
      21    -1     0     0   502   501  0.000000000E+00  0.000000000E+00  3.739627860E-03  3.739627860E-03  0.000000000E+00  0.00000E+00  9.000E+00
       2    -1     0     0   501     0  0.000000000E+00  0.000000000E+00 -4.081718158E+02  4.081718158E+02  0.000000000E+00  0.00000E+00  9.000E+00
      23     2     1     2     0     0  6.182743151E-01 -4.448076813E-02 -3.156373565E+02  3.156427595E+02  1.739700068E+00  0.00000E+00  9.000E+00
      11     1     3     3     0     0  6.346160308E-01 -3.610551162E-01 -5.112867829E+01  5.113389133E+01  5.110000000E-04  0.00000E+00  9.000E+00
     -11     1     3     3     0     0 -1.634171571E-02  3.165743481E-01 -2.645086782E+02  2.645088681E+02  5.110000000E-04  0.00000E+00  9.000E+00
       2     1     1     2   502     0 -6.182743151E-01  4.448076813E-02 -9.253071975E+01  9.253279602E+01  0.000000000E+00  0.00000E+00  9.000E+00
#rwgt            1          17  -16672159.843437398                3    18229800           0
<weights>
-.11145E+08
-.11918E+08
-.10228E+08
-.14484E+08
-.81951E+07
-.91702E+07
-.13910E+08
-.11128E+08
-.11161E+08
-.11166E+08
-.11154E+08
-.11006E+08
-.11305E+08
-.11159E+08
-.11156E+08
-.11312E+08
-.10894E+08
-.11430E+08
-.10730E+08
-.10673E+08
-.11462E+08
-.11106E+08
-.11168E+08
-.11072E+08
-.11176E+08
-.11296E+08
-.11048E+08
-.10802E+08
-.11508E+08
-.11074E+08
-.11180E+08
-.11022E+08
-.11266E+08
-.11457E+08
-.10758E+08
-.11107E+08
-.11180E+08
-.11154E+08
-.11141E+08
-.11236E+08
-.11063E+08
-.11139E+08
-.11151E+08
-.11130E+08
-.11161E+08
</weights>
</event>
<event>
      6  10001 -1.11453E+07  8.94427E-01 -1.00000E+00  2.34317E-01
      21    -1     0     0   502   501  0.000000000E+00  0.000000000E+00  1.395599529E-02  1.395599529E-02  0.000000000E+00  0.00000E+00  9.000E+00
       2    -1     0     0   501     0  0.000000000E+00  0.000000000E+00 -5.308015127E+02  5.308015127E+02  0.000000000E+00  0.00000E+00  9.000E+00
      23     2     1     2     0     0  1.788526420E+00 -1.482472657E-01 -8.969302829E+01  8.971728938E+01  1.063900658E+00  0.00000E+00  9.000E+00
      11     1     3     3     0     0  7.515402541E-01  4.022181982E-01 -4.867339546E+01  4.868085885E+01  5.110000000E-04  0.00000E+00  9.000E+00
     -11     1     3     3     0     0  1.036986166E+00 -5.504654640E-01 -4.101963283E+01  4.103643053E+01  5.110000000E-04  0.00000E+00  9.000E+00
       2     1     1     2   502     0 -1.788526420E+00  1.482472657E-01 -4.410945284E+02  4.410981793E+02  0.000000000E+00  0.00000E+00  9.000E+00
#rwgt            1          17  -4837326.5660849428                3    18230192           0
<weights>
-.11145E+08
-.11841E+08
-.10284E+08
-.14391E+08
-.82403E+07
-.91702E+07
-.13910E+08
-.11130E+08
-.11160E+08
-.11164E+08
-.11149E+08
-.10973E+08
-.11340E+08
-.11156E+08
-.11151E+08
-.11262E+08
-.10965E+08
-.11495E+08
-.10654E+08
-.10584E+08
-.11537E+08
-.11109E+08
-.11173E+08
-.11026E+08
-.11227E+08
-.11374E+08
-.11003E+08
-.10716E+08
-.11623E+08
-.11063E+08
-.11194E+08
-.11028E+08
-.11260E+08
-.11551E+08
-.10649E+08
-.11091E+08
-.11195E+08
-.11143E+08
-.11155E+08
-.11265E+08
-.11038E+08
-.11131E+08
-.11160E+08
-.11134E+08
-.11157E+08
</weights>
</event>
<event>
      6  10001  1.11453E+07  8.94427E-01 -1.00000E+00  5.95394E-01
      -3    -1     0     0     0   502  0.000000000E+00  0.000000000E+00  1.869193208E+00  1.869193208E+00  0.000000000E+00  0.00000E+00  9.000E+00
       3    -1     0     0   501     0  0.000000000E+00  0.000000000E+00 -1.996231071E+00  1.996231071E+00  0.000000000E+00  0.00000E+00  9.000E+00
      23     2     1     2     0     0  1.911734520E-01 -2.452005221E-01 -1.824808406E+00  2.139418658E+00  1.072621038E+00  0.00000E+00  9.000E+00
      11     1     3     3     0     0  1.546421116E-01 -5.371146419E-01 -1.748255514E+00  1.835430174E+00  5.110000000E-04  0.00000E+00  9.000E+00
     -11     1     3     3     0     0  3.653134041E-02  2.919141198E-01 -7.655289246E-02  3.039884844E-01  5.110000000E-04  0.00000E+00  9.000E+00
      21     1     1     2   501   502 -1.911734520E-01  2.452005221E-01  1.697770544E+00  1.726005621E+00  5.161913656E-08  0.00000E+00  9.000E+00
#rwgt            1           6   124967.80074882113                3    18232382           0
<weights>
0.11145E+08
0.12826E+08
0.94869E+07
0.12613E+08
0.93156E+07
0.11068E+08
0.10997E+08
0.11188E+08
0.11097E+08
0.10779E+08
0.10782E+08
0.11042E+08
0.10874E+08
0.10797E+08
0.10783E+08
0.11292E+08
0.11049E+08
0.11228E+08
0.12084E+08
0.11984E+08
0.11228E+08
0.11526E+08
0.11621E+08
0.12378E+08
0.10785E+08
0.10300E+08
0.14513E+08
0.11159E+08
0.11894E+08
0.11505E+08
0.11603E+08
0.11249E+08
0.11168E+08
0.11150E+08
0.11172E+08
0.11241E+08
0.11066E+08
0.11199E+08
0.10995E+08
0.11196E+08
0.11099E+08
0.11217E+08
0.11069E+08
0.11554E+08
0.10772E+08
</weights>
</event>
<event>
      6  10001 -1.11453E+07  8.94427E-01 -1.00000E+00  3.78923E-01
      21    -1     0     0   502   501  0.000000000E+00  0.000000000E+00  1.121649820E-02  1.121649820E-02  0.000000000E+00  0.00000E+00  9.000E+00
       2    -1     0     0   501     0  0.000000000E+00  0.000000000E+00 -1.363050483E+02  1.363050483E+02  0.000000000E+00  0.00000E+00  9.000E+00
      23     2     1     2     0     0 -2.099971697E-01 -1.614749437E-01 -1.341467167E+02  1.341528702E+02  1.257301027E+00  0.00000E+00  9.000E+00
      11     1     3     3     0     0 -6.257420774E-01 -2.454394941E-01 -4.379290325E+01  4.379806125E+01  5.110000000E-04  0.00000E+00  9.000E+00
     -11     1     3     3     0     0  4.157449076E-01  8.396455042E-02 -9.035381346E+01  9.035480896E+01  5.110000000E-04  0.00000E+00  9.000E+00
       2     1     1     2   502     0  2.099971697E-01  1.614749437E-01 -2.147115058E+00  2.163394564E+00  0.000000000E+00  0.00000E+00  9.000E+00
#rwgt            1          17  -11674735.439591894                3    18235130           0
<weights>
-.11145E+08
-.11851E+08
-.10310E+08
-.14403E+08
-.82607E+07
-.91702E+07
-.13910E+08
-.11139E+08
-.11150E+08
-.11166E+08
-.11172E+08
-.11140E+08
-.11154E+08
-.11174E+08
-.11173E+08
-.11240E+08
-.10975E+08
-.11140E+08
-.11070E+08
-.11067E+08
-.11141E+08
-.11107E+08
-.11119E+08
-.11214E+08
-.11024E+08
-.11081E+08
-.11171E+08
-.11136E+08
-.11066E+08
-.11116E+08
-.11117E+08
-.11100E+08
-.11179E+08
-.11143E+08
-.11140E+08
-.11139E+08
-.11146E+08
-.11155E+08
-.11139E+08
-.11125E+08
-.11159E+08
-.11182E+08
-.11106E+08
-.11115E+08
-.11172E+08
</weights>
</event>
<event>
      6  10001 -1.11453E+07  8.94427E-01 -1.00000E+00  3.66967E-01
      21    -1     0     0   502   501  0.000000000E+00  0.000000000E+00  3.019161353E-03  3.019161353E-03  0.000000000E+00  0.00000E+00  9.000E+00
       2    -1     0     0   501     0  0.000000000E+00  0.000000000E+00 -6.886551825E+02  6.886551825E+02  0.000000000E+00  0.00000E+00  9.000E+00
      23     2     1     2     0     0 -2.387340710E-01  2.579853203E-01 -6.747595196E+02  6.747611120E+02  1.423185368E+00  0.00000E+00  9.000E+00
      11     1     3     3     0     0  7.589438519E-02  2.062557283E-01 -6.420658219E+02  6.420658595E+02  5.110000000E-04  0.00000E+00  9.000E+00
     -11     1     3     3     0     0 -3.146284562E-01  5.172959200E-02 -3.269369767E+01  3.269525248E+01  5.110000000E-04  0.00000E+00  9.000E+00
       2     1     1     2   502     0  2.387340710E-01 -2.579853203E-01 -1.389264373E+01  1.389708963E+01  0.000000000E+00  0.00000E+00  9.000E+00
#rwgt            1          17  -71227865.872156471                3    18236419           0
<weights>
-.11145E+08
-.11019E+08
-.11177E+08
-.13392E+08
-.89557E+07
-.91702E+07
-.13910E+08
-.11134E+08
-.11157E+08
-.11163E+08
-.11142E+08
-.10935E+08
-.11380E+08
-.11153E+08
-.11147E+08
-.11088E+08
-.11217E+08
-.11562E+08
-.10577E+08
-.10490E+08
-.11616E+08
-.11117E+08
-.11170E+08
-.10961E+08
-.11300E+08
-.11510E+08
-.10925E+08
-.10604E+08
-.11773E+08
-.11052E+08
-.11207E+08
-.11087E+08
-.11201E+08
-.11686E+08
-.10500E+08
-.11066E+08
-.11219E+08
-.11127E+08
-.11174E+08
-.11304E+08
-.11005E+08
-.11121E+08
-.11170E+08
-.11137E+08
-.11154E+08
</weights>
</event>
<event>
      7  10001  1.11453E+07  3.66920E+00 -1.00000E+00  2.69176E-01
      -4    -1     0     0     0   502  0.000000000E+00  0.000000000E+00  7.781250326E-01  7.781250326E-01  0.000000000E+00  0.00000E+00  9.000E+00
       4    -1     0     0   501     0  0.000000000E+00  0.000000000E+00 -1.215452256E+01  1.215452256E+01  0.000000000E+00  0.00000E+00  9.000E+00
      23     2     1     2     0     0  8.616780234E-01 -5.800717023E-01 -4.245511061E+00  4.657834259E+00  1.609994912E+00  0.00000E+00  9.000E+00
      11     1     3     3     0     0 -3.587533201E-01  1.162044446E-01 -3.418054213E-01  5.089583723E-01  5.110000000E-04  0.00000E+00  9.000E+00
     -11     1     3     3     0     0  1.220431343E+00 -6.962761469E-01 -3.903705640E+00  4.148875887E+00  5.110000000E-04  0.00000E+00  9.000E+00
      21     1     1     2   511   502 -8.136726124E-01  2.113962475E-01  2.558276764E-01  8.787487090E-01  1.625951591E-07  0.00000E+00  9.000E+00
      21     1     1     2   501   511 -4.800541100E-02  3.686754547E-01 -7.386714147E+00  7.396064629E+00  1.192092896E-07  0.00000E+00  9.000E+00
#rwgt            1           4   112327.61034599283                3    18239848           0
<weights>
0.11145E+08
0.12251E+08
0.10015E+08
0.12107E+08
0.96276E+07
0.10950E+08
0.11178E+08
0.11242E+08
0.11045E+08
0.10767E+08
0.10803E+08
0.10913E+08
0.11031E+08
0.10800E+08
0.10807E+08
0.11220E+08
0.11228E+08
0.11480E+08
0.11517E+08
0.11514E+08
0.11455E+08
0.11502E+08
0.11568E+08
0.11286E+08
0.11460E+08
0.11436E+08
0.11018E+08
0.11473E+08
0.11309E+08
0.11456E+08
0.11519E+08
0.11153E+08
0.11249E+08
0.11145E+08
0.11165E+08
0.11314E+08
0.10998E+08
0.10946E+08
0.11218E+08
0.11150E+08
0.11144E+08
0.11159E+08
0.11131E+08
0.11534E+08
0.10783E+08
</weights>
</event>
<event>
      7  10001  1.11453E+07  8.94427E-01 -1.00000E+00  6.07649E-01
      21    -1     0     0   502   501  0.000000000E+00  0.000000000E+00  1.668706118E+01  1.668706118E+01  0.000000000E+00  0.00000E+00  9.000E+00
      -2    -1     0     0     0   502  0.000000000E+00  0.000000000E+00 -3.951721337E-02  3.951721337E-02  0.000000000E+00  0.00000E+00  9.000E+00
      23     2     1     2     0     0  1.412626124E-01  5.269389235E-02  1.097908394E+01  1.104566515E+01  1.201541821E+00  0.00000E+00  9.000E+00
      11     1     3     3     0     0  3.196746092E-01 -1.081208782E-01  8.616022983E-01  9.253327843E-01  5.110000000E-04  0.00000E+00  9.000E+00
     -11     1     3     3     0     0 -1.784119969E-01  1.608147706E-01  1.011748164E+01  1.012033237E+01  5.110000000E-04  0.00000E+00  9.000E+00
      -2     1     1     2     0   512 -2.585541628E-02 -1.224085647E-02  3.120964224E-02  4.233654316E-02  0.000000000E+00  0.00000E+00  9.000E+00
      21     1     1     2   512   501 -1.154071961E-01 -4.045303588E-02  5.637250383E+00  5.638576695E+00  1.032382731E-07  0.00000E+00  9.000E+00
#rwgt            2         160   1287505.5978240659                3    18242191           0
<weights>
0.11145E+08
0.11776E+08
0.10255E+08
0.14313E+08
0.82172E+07
0.91702E+07
0.13910E+08
0.11053E+08
0.11283E+08
0.10811E+08
0.10782E+08
0.10964E+08
0.10978E+08
0.10822E+08
0.10795E+08
0.11210E+08
0.11254E+08
0.11494E+08
0.11528E+08
0.11511E+08
0.11471E+08
0.11538E+08
0.11544E+08
0.11473E+08
0.11304E+08
0.11310E+08
0.11365E+08
0.11476E+08
0.11378E+08
0.11522E+08
0.11543E+08
0.11180E+08
0.11232E+08
0.11136E+08
0.11185E+08
0.11126E+08
0.11196E+08
0.11175E+08
0.11044E+08
0.11174E+08
0.11120E+08
0.11200E+08
0.11087E+08
0.11532E+08
0.10791E+08
</weights>
</event>
<event>
      7  10001  1.11453E+07  1.50046E+00 -1.00000E+00  4.17183E-01
      21    -1     0     0   502   511  0.000000000E+00  0.000000000E+00  4.991193551E+01  4.991193551E+01  0.000000000E+00  0.00000E+00  9.000E+00
       2    -1     0     0   501     0  0.000000000E+00  0.000000000E+00 -1.702647961E+00  1.702647961E+00  0.000000000E+00  0.00000E+00  9.000E+00
      23     2     1     2     0     0 -5.335475330E-01  5.447741293E-01 -8.778458699E-01  1.668802079E+00  1.197010937E+00  0.00000E+00  9.000E+00
      11     1     3     3     0     0 -6.938475256E-01  7.872787869E-01 -8.926906875E-01  1.377726098E+00  5.110000000E-04  0.00000E+00  9.000E+00
     -11     1     3     3     0     0  1.602999925E-01 -2.425046576E-01  1.484481761E-02  2.910759803E-01  5.110000000E-04  0.00000E+00  9.000E+00
       2     1     1     2   502     0  6.675757179E-01 -2.039236709E+00  2.341095661E+00  3.175668842E+00  0.000000000E+00  0.00000E+00  9.000E+00
      21     1     1     2   501   511 -1.340281848E-01  1.494462580E+00  4.674603776E+01  4.677011255E+01  0.000000000E+00  0.00000E+00  9.000E+00
#rwgt            1          17   1561746.0775202231                3    18242328           0
<weights>
0.11145E+08
0.12720E+08
0.97748E+07
0.11926E+08
0.99767E+07
0.11482E+08
0.10361E+08
0.11006E+08
0.11294E+08
0.10828E+08
0.10789E+08
0.10993E+08
0.10949E+08
0.10835E+08
0.10804E+08
0.11149E+08
0.11342E+08
0.11484E+08
0.11506E+08
0.11495E+08
0.11462E+08
0.11533E+08
0.11523E+08
0.11421E+08
0.11313E+08
0.11376E+08
0.11100E+08
0.11531E+08
0.11278E+08
0.11526E+08
0.11521E+08
0.11164E+08
0.11244E+08
0.11127E+08
0.11202E+08
0.10994E+08
0.11329E+08
0.11178E+08
0.11031E+08
0.11166E+08
0.11124E+08
0.11228E+08
0.11058E+08
0.11518E+08
0.10805E+08
</weights>
</event>
<event>
      6  10001 -1.11453E+07  8.94427E-01 -1.00000E+00  2.92261E-01
       2    -1     0     0   501     0  0.000000000E+00  0.000000000E+00  7.466607247E+02  7.466607247E+02  0.000000000E+00  0.00000E+00  9.000E+00
      21    -1     0     0   502   501  0.000000000E+00  0.000000000E+00 -3.801782276E-03  3.801782276E-03  0.000000000E+00  0.00000E+00  9.000E+00
      23     2     1     2     0     0  6.582659997E-01 -2.880225859E-01  7.069013741E+02  7.069024851E+02  1.026888326E+00  0.00000E+00  9.000E+00
      11     1     3     3     0     0 -9.877206323E-02 -4.596690544E-01  2.317151445E+02  2.317156215E+02  5.110000000E-04  0.00000E+00  9.000E+00
     -11     1     3     3     0     0  7.570380629E-01  1.716464685E-01  4.751862295E+02  4.751868635E+02  5.110000000E-04  0.00000E+00  9.000E+00
       2     1     1     2   502     0 -6.582659997E-01  2.880225859E-01  3.975554880E+01  3.976204134E+01  0.000000000E+00  0.00000E+00  9.000E+00
#rwgt            1          24  -52280930.724672310                3    18253714           0
<weights>
-.11145E+08
-.11572E+08
-.10527E+08
-.14075E+08
-.84351E+07
-.91632E+07
-.13909E+08
-.11174E+08
-.11118E+08
-.10828E+08
-.10819E+08
-.10963E+08
-.11010E+08
-.10846E+08
-.10830E+08
-.11225E+08
-.11208E+08
-.11456E+08
-.11496E+08
-.11484E+08
-.11433E+08
-.11494E+08
-.11514E+08
-.11402E+08
-.11328E+08
-.11286E+08
-.11337E+08
-.11429E+08
-.11366E+08
-.11471E+08
-.11506E+08
-.11182E+08
-.11217E+08
-.11138E+08
-.11177E+08
-.11210E+08
-.11099E+08
-.11125E+08
-.11091E+08
-.11164E+08
-.11129E+08
-.11184E+08
-.11105E+08
-.11499E+08
-.10819E+08
</weights>
</event>
<event>
      6  10001  1.11453E+07  8.94427E-01 -1.00000E+00  6.05423E-01
      -2    -1     0     0     0   502  0.000000000E+00  0.000000000E+00  2.104313781E-01  2.104313781E-01  0.000000000E+00  0.00000E+00  9.000E+00
       2    -1     0     0   501     0  0.000000000E+00  0.000000000E+00 -2.156761071E+01  2.156761071E+01  0.000000000E+00  0.00000E+00  9.000E+00
      23     2     1     2     0     0  2.372823514E-01  1.576980249E-01 -2.144352885E+01  2.148033784E+01  1.224259946E+00  0.00000E+00  9.000E+00
      11     1     3     3     0     0  2.199218094E-01 -4.733141858E-01 -5.608418677E+00  5.632650552E+00  5.110000000E-04  0.00000E+00  9.000E+00
     -11     1     3     3     0     0  1.736054196E-02  6.310122107E-01 -1.583511018E+01  1.584768729E+01  5.110000000E-04  0.00000E+00  9.000E+00
      21     1     1     2   501   502 -2.372823514E-01 -1.576980249E-01  8.634951970E-02  2.977042507E-01  5.845115812E-08  0.00000E+00  9.000E+00
#rwgt            1           8   673432.09227363847                3    18255134           0
<weights>
0.11145E+08
0.12302E+08
0.10066E+08
0.11085E+08
0.10511E+08
0.11737E+08
0.99692E+07
0.11187E+08
0.11100E+08
0.10901E+08
0.10931E+08
0.11135E+08
0.10876E+08
0.10923E+08
0.10930E+08
0.10979E+08
0.11492E+08
0.11175E+08
0.11646E+08
0.11661E+08
0.11153E+08
0.11385E+08
0.11396E+08
0.11343E+08
0.11267E+08
0.11281E+08
0.11094E+08
0.11612E+08
0.10888E+08
0.11386E+08
0.11338E+08
0.11174E+08
0.11187E+08
0.11025E+08
0.11339E+08
0.10953E+08
0.11348E+08
0.11013E+08
0.11193E+08
0.11091E+08
0.11183E+08
0.11281E+08
0.11001E+08
0.11387E+08
0.10921E+08
</weights>
</event>
<event>
      6  10001  1.11453E+07  8.94427E-01 -1.00000E+00  6.04344E-01
      21    -1     0     0   502   501  0.000000000E+00  0.000000000E+00  1.349287839E+02  1.349287839E+02  0.000000000E+00  0.00000E+00  9.000E+00
       4    -1     0     0   501     0  0.000000000E+00  0.000000000E+00 -2.951609743E-02  2.951609743E-02  0.000000000E+00  0.00000E+00  9.000E+00
      23     2     1     2     0     0 -9.677425054E-03 -3.940541063E-01  1.334319325E+02  1.334389431E+02  1.309797680E+00  0.00000E+00  9.000E+00
      11     1     3     3     0     0 -4.720014357E-01 -2.904146132E-02  1.042170302E+02  1.042181031E+02  5.110000000E-04  0.00000E+00  9.000E+00
     -11     1     3     3     0     0  4.623240107E-01 -3.650126449E-01  2.921490228E+01  2.922084005E+01  5.110000000E-04  0.00000E+00  9.000E+00
       4     1     1     2   502     0  9.677425054E-03  3.940541063E-01  1.467335269E+00  1.519356799E+00  0.000000000E+00  0.00000E+00  9.000E+00
#rwgt            1          19   35365.434232590305                3    18257449           0
<weights>
0.11145E+08
0.12078E+08
0.10069E+08
0.12766E+08
0.93612E+07
0.10486E+08
0.11890E+08
0.11150E+08
0.11144E+08
0.10780E+08
0.10747E+08
0.10945E+08
0.10969E+08
0.10789E+08
0.10761E+08
0.11232E+08
0.11247E+08
0.11525E+08
0.11585E+08
0.11568E+08
0.11497E+08
0.11580E+08
0.11589E+08
0.11510E+08
0.11332E+08
0.11303E+08
0.11489E+08
0.11504E+08
0.11430E+08
0.11566E+08
0.11592E+08
0.11206E+08
0.11219E+08
0.11132E+08
0.11191E+08
0.11190E+08
0.11123E+08
0.11218E+08
0.10998E+08
0.11188E+08
0.11109E+08
0.11196E+08
0.11092E+08
0.11572E+08
0.10756E+08
</weights>
</event>
<event>
      6  10001 -1.11453E+07  8.94427E-01 -1.00000E+00  4.27954E-01
      -4    -1     0     0     0   502  0.000000000E+00  0.000000000E+00  3.611198957E-01  3.611198957E-01  0.000000000E+00  0.00000E+00  9.000E+00
      21    -1     0     0   502   501  0.000000000E+00  0.000000000E+00 -1.611107002E+00  1.611107002E+00  0.000000000E+00  0.00000E+00  9.000E+00
      23     2     1     2     0     0 -4.452321501E-02  3.152822364E-01 -1.041603746E+00  1.591689344E+00  1.160668513E+00  0.00000E+00  9.000E+00
      11     1     3     3     0     0  2.587882144E-01  3.728101344E-02  1.701772626E-01  3.119643821E-01  5.110000000E-04  0.00000E+00  9.000E+00
     -11     1     3     3     0     0 -3.033114294E-01  2.780012230E-01 -1.211781009E+00  1.279724962E+00  5.110000000E-04  0.00000E+00  9.000E+00
      -4     1     1     2     0   501  4.452321501E-02 -3.152822364E-01 -2.083833602E-01  3.805375541E-01  0.000000000E+00  0.00000E+00  9.000E+00
#rwgt            1           3  -597304.03077570652                3    18270122           0
<weights>
-.11145E+08
-.90874E+07
-.12310E+08
-.17562E+08
-.64213E+07
-.51592E+07
-.20067E+08
-.11181E+08
-.11110E+08
-.11219E+08
-.11295E+08
-.11141E+08
-.11249E+08
-.11256E+08
-.11291E+08
-.11151E+08
-.11011E+08
-.10987E+08
-.10978E+08
-.10973E+08
-.11003E+08
-.10950E+08
-.10997E+08
-.10960E+08
-.11143E+08
-.11093E+08
-.11041E+08
-.10946E+08
-.11007E+08
-.10917E+08
-.10958E+08
-.11065E+08
-.11168E+08
-.11154E+08
-.11116E+08
-.11206E+08
-.11082E+08
-.10842E+08
-.11447E+08
-.11055E+08
-.11224E+08
-.11127E+08
-.11164E+08
-.10998E+08
-.11269E+08
</weights>
</event>
<event>
      7  10001  1.11453E+07  1.18674E+00 -1.00000E+00  5.00504E-01
       5    -1     0     0   501     0  0.000000000E+00  0.000000000E+00  7.986457515E-01  7.986457515E-01  0.000000000E+00  0.00000E+00  9.000E+00
      21    -1     0     0   502   501  0.000000000E+00  0.000000000E+00 -2.224705893E+00  2.224705893E+00  0.000000000E+00  0.00000E+00  9.000E+00
      23     2     1     2     0     0  2.109129836E-01  2.332823499E-01 -7.746089863E-01  1.626370814E+00  1.395047670E+00  0.00000E+00  9.000E+00
      11     1     3     3     0     0 -7.717479813E-02 -4.537161444E-01  1.066515298E-01  4.724289355E-01  5.110000000E-04  0.00000E+00  9.000E+00
     -11     1     3     3     0     0  2.880877818E-01  6.869984943E-01 -8.812605162E-01  1.153941879E+00  5.110000000E-04  0.00000E+00  9.000E+00
       5     1     1     2   511     0 -1.302917933E-01 -1.388490286E-01 -1.004680000E+00  1.022563889E+00  0.000000000E+00  0.00000E+00  9.000E+00
      21     1     1     2   502   511 -8.062119029E-02 -9.443332132E-02  3.532288454E-01  3.744169410E-01  1.535976539E-08  0.00000E+00  9.000E+00
#rwgt            2         338   5680738.4107053615                3    18285445           0
<weights>
0.11143E+08
0.12517E+08
0.93005E+07
0.15213E+08
0.74521E+07
0.91683E+07
0.13907E+08
0.11199E+08
0.11083E+08
0.10862E+08
0.10872E+08
0.10972E+08
0.11043E+08
0.10887E+08
0.10880E+08
0.11220E+08
0.11175E+08
0.11407E+08
0.11415E+08
0.11411E+08
0.11386E+08
0.11428E+08
0.11454E+08
0.11292E+08
0.11336E+08
0.11286E+08
0.11131E+08
0.11376E+08
0.11309E+08
0.11399E+08
0.11440E+08
0.11163E+08
0.11211E+08
0.11138E+08
0.11166E+08
0.11235E+08
0.11066E+08
0.11057E+08
0.11156E+08
0.11145E+08
0.11142E+08
0.11169E+08
0.11116E+08
0.11442E+08
0.10865E+08
</weights>
</event>
<event>
      7  10001  1.11453E+07  1.71019E+00 -1.00000E+00  3.85728E-01
       2    -1     0     0   501     0  0.000000000E+00  0.000000000E+00  5.026347556E+00  5.026347556E+00  0.000000000E+00  0.00000E+00  9.000E+00
      21    -1     0     0   502   512  0.000000000E+00  0.000000000E+00 -3.173207772E+00  3.173207772E+00  0.000000000E+00  0.00000E+00  9.000E+00
      23     2     1     2     0     0  1.612048635E+00  3.335591974E-01  1.923470601E+00  4.070018190E+00  3.186745421E+00  0.00000E+00  9.000E+00
      11     1     3     3     0     0 -9.643029884E-01 -1.169141135E-01  5.272426225E-01  1.105230387E+00  5.110000000E-04  0.00000E+00  9.000E+00
     -11     1     3     3     0     0  2.576351623E+00  4.504733109E-01  1.396227979E+00  2.964787803E+00  5.110000000E-04  0.00000E+00  9.000E+00
       2     1     1     2   502     0 -9.977938913E-01 -1.929633098E+00  6.593227346E-01  2.270194487E+00  0.000000000E+00  0.00000E+00  9.000E+00
      21     1     1     2   501   512 -6.142547434E-01  1.596073900E+00 -7.296535517E-01  1.859342650E+00  3.161013638E-08  0.00000E+00  9.000E+00
#rwgt            1          24   995402.24906505772                3    18285525           0
<weights>
0.11145E+08
0.13358E+08
0.88474E+07
0.12443E+08
0.95197E+07
0.11715E+08
0.10003E+08
0.11194E+08
0.11091E+08
0.10746E+08
0.10713E+08
0.10923E+08
0.10962E+08
0.10753E+08
0.10727E+08
0.11244E+08
0.11256E+08
0.11571E+08
0.11593E+08
0.11588E+08
0.11537E+08
0.11618E+08
0.11635E+08
0.11442E+08
0.11400E+08
0.11368E+08
0.11190E+08
0.11550E+08
0.11434E+08
0.11600E+08
0.11631E+08
0.11213E+08
0.11222E+08
0.11127E+08
0.11198E+08
0.11232E+08
0.11079E+08
0.11208E+08
0.10979E+08
0.11196E+08
0.11102E+08
0.11192E+08
0.11096E+08
0.11611E+08
0.10721E+08
</weights>
</event>
<event>
      6  10001 -1.11453E+07  8.94427E-01 -1.00000E+00  3.28940E-01
      21    -1     0     0   502   501  0.000000000E+00  0.000000000E+00  3.107270821E+02  3.107270821E+02  0.000000000E+00  0.00000E+00  9.000E+00
      -4    -1     0     0     0   502  0.000000000E+00  0.000000000E+00 -2.421930162E-02  2.421930162E-02  0.000000000E+00  0.00000E+00  9.000E+00
      23     2     1     2     0     0 -8.751257085E-01 -4.236421276E-01  1.646627286E+02  1.647079308E+02  3.734024752E+00  0.00000E+00  9.000E+00
      11     1     3     3     0     0 -2.122757775E+00 -3.575060574E-01  1.371016193E+02  1.371185178E+02  5.110000000E-04  0.00000E+00  9.000E+00
     -11     1     3     3     0     0  1.247632067E+00 -6.613607023E-02  2.756110934E+01  2.758941297E+01  5.110000000E-04  0.00000E+00  9.000E+00
      -4     1     1     2     0   501  8.751257085E-01  4.236421276E-01  1.460401342E+02  1.460433706E+02  0.000000000E+00  0.00000E+00  9.000E+00
#rwgt            1          12  -978498.05000825436                3    18353567           0
<weights>
-.11145E+08
-.11882E+08
-.10125E+08
-.14460E+08
-.81137E+07
-.91582E+07
-.13909E+08
-.11164E+08
-.11128E+08
-.10803E+08
-.10783E+08
-.10954E+08
-.10989E+08
-.10817E+08
-.10795E+08
-.11229E+08
-.11227E+08
-.11492E+08
-.11539E+08
-.11526E+08
-.11466E+08
-.11538E+08
-.11552E+08
-.11453E+08
-.11332E+08
-.11296E+08
-.11400E+08
-.11467E+08
-.11398E+08
-.11519E+08
-.11550E+08
-.11194E+08
-.11218E+08
-.11135E+08
-.11184E+08
-.11201E+08
-.11110E+08
-.11171E+08
-.11045E+08
-.11176E+08
-.11119E+08
-.11190E+08
-.11099E+08
-.11536E+08
-.10787E+08
</weights>
</event>
<event>
      7  10001  1.11453E+07  2.24277E+00 -1.00000E+00  3.33953E-01
      21    -1     0     0   511   501  0.000000000E+00  0.000000000E+00  2.385125328E+00  2.385125328E+00  0.000000000E+00  0.00000E+00  9.000E+00
      -2    -1     0     0     0   502  0.000000000E+00  0.000000000E+00 -2.910205867E+01  2.910205867E+01  0.000000000E+00  0.00000E+00  9.000E+00
      23     2     1     2     0     0  1.797067889E+00  1.165977518E+00 -1.599415232E+01  1.622901603E+01  1.726005922E+00  0.00000E+00  9.000E+00
      11     1     3     3     0     0  1.181761536E+00  1.239345435E+00 -1.464002824E+01  1.473984276E+01  5.110000000E-04  0.00000E+00  9.000E+00
     -11     1     3     3     0     0  6.153063528E-01 -7.336791660E-02 -1.354124079E+00  1.489173275E+00  5.110000000E-04  0.00000E+00  9.000E+00
      -2     1     1     2     0   501 -3.711253676E+00  2.735520532E-03 -1.207964111E+01  1.263689601E+01  0.000000000E+00  0.00000E+00  9.000E+00
      21     1     1     2   511   502  1.914185787E+00 -1.168713039E+00  1.356860085E+00  2.621271959E+00  5.575503985E-08  0.00000E+00  9.000E+00
#rwgt            1          14   558277.51730034011                3    18354863           0
<weights>
0.11137E+08
0.12686E+08
0.98224E+07
0.11587E+08
0.10214E+08
0.11729E+08
0.10129E+08
0.11222E+08
0.11051E+08
0.10860E+08
0.10919E+08
0.10995E+08
0.10983E+08
0.10905E+08
0.10917E+08
0.11083E+08
0.11306E+08
0.11376E+08
0.11338E+08
0.11310E+08
0.11377E+08
0.11353E+08
0.11414E+08
0.11266E+08
0.11313E+08
0.11392E+08
0.11002E+08
0.11355E+08
0.11123E+08
0.11312E+08
0.11359E+08
0.11064E+08
0.11279E+08
0.11245E+08
0.11044E+08
0.10965E+08
0.11315E+08
0.10884E+08
0.11327E+08
0.11123E+08
0.11139E+08
0.11264E+08
0.11002E+08
0.11390E+08
0.10898E+08
</weights>
</event>
</LesHouchesEvents>
 #Random number generator exit values:            3      18365788             0
